<?xml version="1.0"?>
<VTKFile type="UnstructuredGrid" version="0.1" byte_order="LittleEndian" header_type="UInt32" compressor="vtkZLibDataCompressor">
  <UnstructuredGrid>
    <Piece NumberOfPoints="16" NumberOfCells="3">
      <PointData>
        <DataArray type="Int32" Name="libmesh_node_id" format="ascii" RangeMin="16" RangeMax="55">
          16 20 28 24 18 21
          29 26 22 30 23 31
          50 51 55 54
        </DataArray>
        <DataArray type="Float64" Name="power_density" format="ascii" RangeMin="6748.75" RangeMax="14377.5">
          12862.5 13120 12365 12362.5 14243.75 14375
          12121.25 12118.75 13125 12115 14377.5 12122.5
          11877.5 11880 6877.5 6748.75
        </DataArray>
        <DataArray type="Float64" Name="tempe_density" format="ascii" RangeMin="7148.75" RangeMax="14777.5">
          13262.5 13520 12765 12762.5 14643.75 14775
          12521.25 12518.75 13525 12515 14777.5 12522.5
          12277.5 12280 7277.5 7148.75
        </DataArray>
        <DataArray type="Float64" Name="temperature" format="ascii" RangeMin="0" RangeMax="0">
          0 0 0 0 0 0
          0 0 0 0 0 0
          0 0 0 0
        </DataArray>
        <DataArray type="Float64" Name="dummy" format="ascii" RangeMin="0" RangeMax="0">
          0 0 0 0 0 0
          0 0 0 0 0 0
          0 0 0 0
        </DataArray>
      </PointData>
      <CellData>
        <DataArray type="Int32" Name="libmesh_elem_id" format="ascii" RangeMin="7" RangeMax="20">
          7 8 20
        </DataArray>
        <DataArray type="Int32" Name="subdomain_id" format="ascii" RangeMin="0" RangeMax="0">
          0 0 0
        </DataArray>
        <DataArray type="Int32" Name="processor_id" format="ascii" RangeMin="14" RangeMax="14">
          14 14 14
        </DataArray>
      </CellData>
      <Points>
        <DataArray type="Float64" Name="Points" NumberOfComponents="3" format="ascii" RangeMin="2.23606797749979" RangeMax="4.69041575982343">
          1 2 0 2 2 0
          2 3 0 1 3 0
          1 2 1 2 2 1
          2 3 1 1 3 1
          3 2 0 3 3 0
          3 2 1 3 3 1
          2 2 2 3 2 2
          3 3 2 2 3 2
          <InformationKey name="L2_NORM_RANGE" location="vtkDataArray" length="2">
            <Value index="0">
              2.2360679775
            </Value>
            <Value index="1">
              4.6904157598
            </Value>
          </InformationKey>
        </DataArray>
      </Points>
      <Cells>
        <DataArray type="Int64" Name="connectivity" format="ascii" RangeMin="0" RangeMax="15">
          0 1 2 3 4 5
          6 7 1 8 9 2
          5 10 11 6 5 10
          11 6 12 13 14 15
        </DataArray>
        <DataArray type="Int64" Name="offsets" format="ascii" RangeMin="8" RangeMax="24">
          8 16 24
        </DataArray>
        <DataArray type="UInt8" Name="types" format="ascii" RangeMin="12" RangeMax="12">
          12 12 12
        </DataArray>
      </Cells>
    </Piece>
  </UnstructuredGrid>
</VTKFile>
