<?xml version="1.0"?>
<VTKFile type="UnstructuredGrid" version="0.1" byte_order="LittleEndian" header_type="UInt32" compressor="vtkZLibDataCompressor">
  <UnstructuredGrid>
    <Piece NumberOfPoints="125" NumberOfCells="64">
      <PointData>
        <DataArray type="Int32" Name="libmesh_node_id" format="ascii" RangeMin="0" RangeMax="124">
          0 1 2 3 4 5
          6 7 8 9 10 11
          12 13 14 15 16 17
          18 19 20 21 22 23
          24 25 26 27 28 29
          30 31 32 33 34 35
          36 37 38 39 40 41
          42 43 44 45 46 47
          48 49 50 51 52 53
          54 55 56 57 58 59
          60 61 62 63 64 65
          66 67 68 69 70 71
          72 73 74 75 76 77
          78 79 80 81 82 83
          84 85 86 87 88 89
          90 91 92 93 94 95
          96 97 98 99 100 101
          102 103 104 105 106 107
          108 109 110 111 112 113
          114 115 116 117 118 119
          120 121 122 123 124
        </DataArray>
        <DataArray type="Float64" Name="power_density" format="ascii" RangeMin="150.01304643348624" RangeMax="158.66279858487104">
          158.66279858487104 157.24460311947354 154.72760667894477 156.2187279581072 155.1959906257551 154.29407605174032
          153.67343621766582 155.45346325287343 156.15126273623116 154.25128205913893 155.48069011019308 154.09250372880106
          153.24458212593626 153.09416774287786 155.4620555323217 155.06309127793043 150.01304643348624 150.92225676726017
          153.35489232198285 153.8345842807169 153.28952202273658 155.3065630530439 153.6822020700196 154.57528712013715
          151.9446698401835 153.95760011789645 151.82288471803173 154.3049172633606 151.02891074812567 153.4837513108303
          154.8813262187627 155.09462620365446 155.0239632315578 154.92011819053783 152.72812699314255 154.1951175250667
          151.24398684561655 152.72076024272363 151.69974593881892 152.17909370789164 155.39421863046826 153.35078363256446
          155.73631870666776 156.4005980207932 153.91821568796487 153.1793521617496 151.78595761498917 151.4958129822652
          153.17313748242063 151.70496103357362 152.22426316388007 151.99603693768017 154.33570189410824 155.45803907967564
          154.2058364776806 154.7196335042836 155.03738624014983 154.99550757676408 153.43091023641875 153.76511285350182
          155.0299757599213 154.60136967396357 156.11763141227826 155.77962200707728 154.78256303547707 154.0899877650329
          152.8154991771704 155.87601433958994 155.20574603586795 154.0239397454514 154.79539086075945 155.12007400188492
          154.75019638550992 153.80587697095967 152.58206889053352 155.66804978165135 154.25531254140876 155.53113419369922
          156.9627503268676 153.52360083499707 154.6536407591313 152.40293349463258 153.36140643276704 150.60124062043718
          151.51504940780237 154.93873549852833 154.74775670583824 155.5710229388888 155.0754042289635 154.13847687136786
          153.86112463977275 152.40007406592744 155.1481755196744 154.7312746740024 154.48837352227406 154.65173412847844
          153.56208559226224 154.9379858448367 153.63162026097933 153.12865149697993 158.61675590218167 155.86210019146426
          155.01013035556878 157.69762104202357 153.44564619878793 153.80173990815865 152.4106234476726 153.76381252498902
          151.03739897851625 152.24678490277478 153.89240159451668 154.13678525097976 154.87731344883053 155.378514252462
          154.65041954531654 154.70887399383264 153.91475995493528 154.20643041715977 153.24859091609957 153.5873090306096
          155.79110531830526 156.33443558977652 152.81606755418784 150.85715492958056 151.3299497976194
        </DataArray>
        <DataArray type="Float64" Name="tempe_density" format="ascii" RangeMin="550.3400942638373" RangeMax="558.5966279446859">
          554.7081724816128 552.4179489547826 553.5811822527205 555.2119283194901 556.4427428486906 555.4600737220891
          555.3596141900549 556.7179793228446 553.2511227765888 552.8505490453474 554.9158944181779 553.8419633023443
          554.172819488771 554.2338909545844 553.823391070117 553.8493587191444 551.9711188523169 554.7171200044247
          552.2923978993658 554.0160398908653 554.7087167838292 555.9842540306287 555.1136494646865 557.0117994153838
          553.6134678325323 553.7931403947945 554.3340364365588 554.6667652061307 554.8743167450826 554.9627491366614
          554.9344079211023 554.3224786780352 554.5103667554836 554.6009257373769 555.54976602496 554.9700017085671
          553.5706537272245 554.9441436204595 551.5881125686983 554.368091597375 555.1957978252046 552.3921334521804
          554.0525892396147 552.1714684409845 556.3225716989616 555.1217548140562 552.768197001729 554.4300831968296
          550.8907128037639 554.5503668037918 558.5966279446859 557.6025228240906 556.0733803524214 556.5089417322074
          556.8224012967986 555.5694551387892 554.3477511233469 554.8740732809366 551.659117356592 554.2470552569303
          554.8643086025877 555.5356566993314 554.340111678221 555.4943858882168 556.5015089258357 554.6324204677506
          554.6206951279032 554.2560493097968 554.7843354978806 555.7007181837655 554.0804616110781 552.5913323768726
          554.1483842439316 553.9802946578538 555.2334116731282 554.6780184687203 554.5862490960649 554.4900234697718
          554.1288161903044 554.8230416198551 554.4635382790626 553.7528602376135 554.7403604650166 552.3541169589264
          555.4048751211471 553.8354212844315 553.1975164106306 553.41850964217 554.5143108511822 556.664928576257
          554.8385943141102 554.1646490217281 553.5594026920281 552.7945627378804 553.9828596981968 556.4001439028357
          555.5138791340836 554.3858210379863 552.288364465816 553.0914955272473 550.3400942638373 552.4696510333442
          553.9713323620899 553.4637792423931 552.5819467058799 552.6215438398883 552.2841808799963 553.1974008518646
          554.0036761510838 555.6305995057394 553.4608075092317 553.3630642227372 552.1296088849548 553.0393439016333
          555.3780208290829 554.4986732825837 553.9672805843682 552.9969441566366 552.338087993694 553.7123536549143
          557.5487452375398 557.7958969442107 554.3958115172601 552.7081090078544 553.9261885120577
        </DataArray>
        <DataArray type="Float64" Name="temperature" format="ascii" RangeMin="200" RangeMax="200">
          200 200 200 200 200 200
          200 200 200 200 200 200
          200 200 200 200 200 200
          200 200 200 200 200 200
          200 200 200 200 200 200
          200 200 200 200 200 200
          200 200 200 200 200 200
          200 200 200 200 200 200
          200 200 200 200 200 200
          200 200 200 200 200 200
          200 200 200 200 200 200
          200 200 200 200 200 200
          200 200 200 200 200 200
          200 200 200 200 200 200
          200 200 200 200 200 200
          200 200 200 200 200 200
          200 200 200 200 200 200
          200 200 200 200 200 200
          200 200 200 200 200 200
          200 200 200 200 200 200
          200 200 200 200 200
        </DataArray>
        <DataArray type="Float64" Name="dummy" format="ascii" RangeMin="0" RangeMax="0">
          0 0 0 0 0 0
          0 0 0 0 0 0
          0 0 0 0 0 0
          0 0 0 0 0 0
          0 0 0 0 0 0
          0 0 0 0 0 0
          0 0 0 0 0 0
          0 0 0 0 0 0
          0 0 0 0 0 0
          0 0 0 0 0 0
          0 0 0 0 0 0
          0 0 0 0 0 0
          0 0 0 0 0 0
          0 0 0 0 0 0
          0 0 0 0 0 0
          0 0 0 0 0 0
          0 0 0 0 0 0
          0 0 0 0 0 0
          0 0 0 0 0 0
          0 0 0 0 0 0
          0 0 0 0 0
        </DataArray>
      </PointData>
      <CellData>
        <DataArray type="Int32" Name="libmesh_elem_id" format="ascii" RangeMin="0" RangeMax="63">
          0 1 2 3 4 5
          6 7 8 9 10 11
          12 13 14 15 16 17
          18 19 20 21 22 23
          24 25 26 27 28 29
          30 31 32 33 34 35
          36 37 38 39 40 41
          42 43 44 45 46 47
          48 49 50 51 52 53
          54 55 56 57 58 59
          60 61 62 63
        </DataArray>
        <DataArray type="Int32" Name="subdomain_id" format="ascii" RangeMin="0" RangeMax="0">
          0 0 0 0 0 0
          0 0 0 0 0 0
          0 0 0 0 0 0
          0 0 0 0 0 0
          0 0 0 0 0 0
          0 0 0 0 0 0
          0 0 0 0 0 0
          0 0 0 0 0 0
          0 0 0 0 0 0
          0 0 0 0 0 0
          0 0 0 0
        </DataArray>
        <DataArray type="Int32" Name="processor_id" format="ascii" RangeMin="0" RangeMax="0">
          0 0 0 0 0 0
          0 0 0 0 0 0
          0 0 0 0 0 0
          0 0 0 0 0 0
          0 0 0 0 0 0
          0 0 0 0 0 0
          0 0 0 0 0 0
          0 0 0 0 0 0
          0 0 0 0 0 0
          0 0 0 0 0 0
          0 0 0 0
        </DataArray>
      </CellData>
      <Points>
        <DataArray type="Float64" Name="Points" NumberOfComponents="3" format="ascii" RangeMin="0" RangeMax="1.7320508075688772">
          0 0 0 0.25 0 0
          0.25 0.25 0 0 0.25 0
          0 0 0.25 0.25 0 0.25
          0.25 0.25 0.25 0 0.25 0.25
          0.5 0 0 0.5 0.25 0
          0.5 0 0.25 0.5 0.25 0.25
          0.75 0 0 0.75 0.25 0
          0.75 0 0.25 0.75 0.25 0.25
          1 0 0 1 0.25 0
          1 0 0.25 1 0.25 0.25
          0.25 0.5 0 0 0.5 0
          0.25 0.5 0.25 0 0.5 0.25
          0.5 0.5 0 0.5 0.5 0.25
          0.75 0.5 0 0.75 0.5 0.25
          1 0.5 0 1 0.5 0.25
          0.25 0.75 0 0 0.75 0
          0.25 0.75 0.25 0 0.75 0.25
          0.5 0.75 0 0.5 0.75 0.25
          0.75 0.75 0 0.75 0.75 0.25
          1 0.75 0 1 0.75 0.25
          0.25 1 0 0 1 0
          0.25 1 0.25 0 1 0.25
          0.5 1 0 0.5 1 0.25
          0.75 1 0 0.75 1 0.25
          1 1 0 1 1 0.25
          0 0 0.5 0.25 0 0.5
          0.25 0.25 0.5 0 0.25 0.5
          0.5 0 0.5 0.5 0.25 0.5
          0.75 0 0.5 0.75 0.25 0.5
          1 0 0.5 1 0.25 0.5
          0.25 0.5 0.5 0 0.5 0.5
          0.5 0.5 0.5 0.75 0.5 0.5
          1 0.5 0.5 0.25 0.75 0.5
          0 0.75 0.5 0.5 0.75 0.5
          0.75 0.75 0.5 1 0.75 0.5
          0.25 1 0.5 0 1 0.5
          0.5 1 0.5 0.75 1 0.5
          1 1 0.5 0 0 0.75
          0.25 0 0.75 0.25 0.25 0.75
          0 0.25 0.75 0.5 0 0.75
          0.5 0.25 0.75 0.75 0 0.75
          0.75 0.25 0.75 1 0 0.75
          1 0.25 0.75 0.25 0.5 0.75
          0 0.5 0.75 0.5 0.5 0.75
          0.75 0.5 0.75 1 0.5 0.75
          0.25 0.75 0.75 0 0.75 0.75
          0.5 0.75 0.75 0.75 0.75 0.75
          1 0.75 0.75 0.25 1 0.75
          0 1 0.75 0.5 1 0.75
          0.75 1 0.75 1 1 0.75
          0 0 1 0.25 0 1
          0.25 0.25 1 0 0.25 1
          0.5 0 1 0.5 0.25 1
          0.75 0 1 0.75 0.25 1
          1 0 1 1 0.25 1
          0.25 0.5 1 0 0.5 1
          0.5 0.5 1 0.75 0.5 1
          1 0.5 1 0.25 0.75 1
          0 0.75 1 0.5 0.75 1
          0.75 0.75 1 1 0.75 1
          0.25 1 1 0 1 1
          0.5 1 1 0.75 1 1
          1 1 1
          <InformationKey name="L2_NORM_RANGE" location="vtkDataArray" length="2">
            <Value index="0">
              0
            </Value>
            <Value index="1">
              1.7320508076
            </Value>
          </InformationKey>
        </DataArray>
      </Points>
      <Cells>
        <DataArray type="Int64" Name="connectivity" format="ascii" RangeMin="0" RangeMax="124">
          0 1 2 3 4 5
          6 7 1 8 9 2
          5 10 11 6 8 12
          13 9 10 14 15 11
          12 16 17 13 14 18
          19 15 3 2 20 21
          7 6 22 23 2 9
          24 20 6 11 25 22
          9 13 26 24 11 15
          27 25 13 17 28 26
          15 19 29 27 21 20
          30 31 23 22 32 33
          20 24 34 30 22 25
          35 32 24 26 36 34
          25 27 37 35 26 28
          38 36 27 29 39 37
          31 30 40 41 33 32
          42 43 30 34 44 40
          32 35 45 42 34 36
          46 44 35 37 47 45
          36 38 48 46 37 39
          49 47 4 5 6 7
          50 51 52 53 5 10
          11 6 51 54 55 52
          10 14 15 11 54 56
          57 55 14 18 19 15
          56 58 59 57 7 6
          22 23 53 52 60 61
          6 11 25 22 52 55
          62 60 11 15 27 25
          55 57 63 62 15 19
          29 27 57 59 64 63
          23 22 32 33 61 60
          65 66 22 25 35 32
          60 62 67 65 25 27
          37 35 62 63 68 67
          27 29 39 37 63 64
          69 68 33 32 42 43
          66 65 70 71 32 35
          45 42 65 67 72 70
          35 37 47 45 67 68
          73 72 37 39 49 47
          68 69 74 73 50 51
          52 53 75 76 77 78
          51 54 55 52 76 79
          80 77 54 56 57 55
          79 81 82 80 56 58
          59 57 81 83 84 82
          53 52 60 61 78 77
          85 86 52 55 62 60
          77 80 87 85 55 57
          63 62 80 82 88 87
          57 59 64 63 82 84
          89 88 61 60 65 66
          86 85 90 91 60 62
          67 65 85 87 92 90
          62 63 68 67 87 88
          93 92 63 64 69 68
          88 89 94 93 66 65
          70 71 91 90 95 96
          65 67 72 70 90 92
          97 95 67 68 73 72
          92 93 98 97 68 69
          74 73 93 94 99 98
          75 76 77 78 100 101
          102 103 76 79 80 77
          101 104 105 102 79 81
          82 80 104 106 107 105
          81 83 84 82 106 108
          109 107 78 77 85 86
          103 102 110 111 77 80
          87 85 102 105 112 110
          80 82 88 87 105 107
          113 112 82 84 89 88
          107 109 114 113 86 85
          90 91 111 110 115 116
          85 87 92 90 110 112
          117 115 87 88 93 92
          112 113 118 117 88 89
          94 93 113 114 119 118
          91 90 95 96 116 115
          120 121 90 92 97 95
          115 117 122 120 92 93
          98 97 117 118 123 122
          93 94 99 98 118 119
          124 123
        </DataArray>
        <DataArray type="Int64" Name="offsets" format="ascii" RangeMin="8" RangeMax="512">
          8 16 24 32 40 48
          56 64 72 80 88 96
          104 112 120 128 136 144
          152 160 168 176 184 192
          200 208 216 224 232 240
          248 256 264 272 280 288
          296 304 312 320 328 336
          344 352 360 368 376 384
          392 400 408 416 424 432
          440 448 456 464 472 480
          488 496 504 512
        </DataArray>
        <DataArray type="UInt8" Name="types" format="ascii" RangeMin="12" RangeMax="12">
          12 12 12 12 12 12
          12 12 12 12 12 12
          12 12 12 12 12 12
          12 12 12 12 12 12
          12 12 12 12 12 12
          12 12 12 12 12 12
          12 12 12 12 12 12
          12 12 12 12 12 12
          12 12 12 12 12 12
          12 12 12 12 12 12
          12 12 12 12
        </DataArray>
      </Cells>
    </Piece>
  </UnstructuredGrid>
</VTKFile>
