<?xml version="1.0"?>
<VTKFile type="UnstructuredGrid" version="0.1" byte_order="LittleEndian" header_type="UInt32" compressor="vtkZLibDataCompressor">
  <UnstructuredGrid>
    <Piece NumberOfPoints="16" NumberOfCells="3">
      <PointData>
        <DataArray type="Int32" Name="libmesh_node_id" format="ascii" RangeMin="0" RangeMax="45">
          0 1 2 3 4 5
          6 7 8 9 10 11
          41 44 45 42
        </DataArray>
        <DataArray type="Float64" Name="power_density" format="ascii" RangeMin="15120" RangeMax="19115">
          19110 19115 15615 15610 18610 18867.5
          16993.75 16862.5 18115 15120 18120 16498.75
          16867.5 16870 16873.75 16871.25
        </DataArray>
        <DataArray type="Float64" Name="tempe_density" format="ascii" RangeMin="15520" RangeMax="19515">
          19510 19515 16015 16010 19010 19267.5
          17393.75 17262.5 18515 15520 18520 16898.75
          17267.5 17270 17273.75 17271.25
        </DataArray>
        <DataArray type="Float64" Name="temperature" format="ascii" RangeMin="0" RangeMax="0">
          0 0 0 0 0 0
          0 0 0 0 0 0
          0 0 0 0
        </DataArray>
        <DataArray type="Float64" Name="dummy" format="ascii" RangeMin="0" RangeMax="0">
          0 0 0 0 0 0
          0 0 0 0 0 0
          0 0 0 0
        </DataArray>
      </PointData>
      <CellData>
        <DataArray type="Int32" Name="libmesh_elem_id" format="ascii" RangeMin="0" RangeMax="13">
          0 1 13
        </DataArray>
        <DataArray type="Int32" Name="subdomain_id" format="ascii" RangeMin="0" RangeMax="0">
          0 0 0
        </DataArray>
        <DataArray type="Int32" Name="processor_id" format="ascii" RangeMin="19" RangeMax="19">
          19 19 19
        </DataArray>
      </CellData>
      <Points>
        <DataArray type="Float64" Name="Points" NumberOfComponents="3" format="ascii" RangeMin="0" RangeMax="3">
          0 0 0 1 0 0
          1 1 0 0 1 0
          0 0 1 1 0 1
          1 1 1 0 1 1
          2 0 0 2 1 0
          2 0 1 2 1 1
          1 0 2 2 0 2
          2 1 2 1 1 2
          <InformationKey name="L2_NORM_RANGE" location="vtkDataArray" length="2">
            <Value index="0">
              0
            </Value>
            <Value index="1">
              3
            </Value>
          </InformationKey>
        </DataArray>
      </Points>
      <Cells>
        <DataArray type="Int64" Name="connectivity" format="ascii" RangeMin="0" RangeMax="15">
          0 1 2 3 4 5
          6 7 1 8 9 2
          5 10 11 6 5 10
          11 6 12 13 14 15
        </DataArray>
        <DataArray type="Int64" Name="offsets" format="ascii" RangeMin="8" RangeMax="24">
          8 16 24
        </DataArray>
        <DataArray type="UInt8" Name="types" format="ascii" RangeMin="12" RangeMax="12">
          12 12 12
        </DataArray>
      </Cells>
    </Piece>
  </UnstructuredGrid>
</VTKFile>
