<?xml version="1.0"?>
<VTKFile type="UnstructuredGrid" version="0.1" byte_order="LittleEndian" header_type="UInt32" compressor="vtkZLibDataCompressor">
  <UnstructuredGrid>
    <Piece NumberOfPoints="125" NumberOfCells="64">
      <PointData>
        <DataArray type="Int32" Name="libmesh_node_id" format="ascii" RangeMin="0" RangeMax="124">
          0 1 2 3 4 5
          6 7 8 9 10 11
          12 13 14 15 16 17
          18 19 20 21 22 23
          24 25 26 27 28 29
          30 31 32 33 34 35
          36 37 38 39 40 41
          42 43 44 45 46 47
          48 49 50 51 52 53
          54 55 56 57 58 59
          60 61 62 63 64 65
          66 67 68 69 70 71
          72 73 74 75 76 77
          78 79 80 81 82 83
          84 85 86 87 88 89
          90 91 92 93 94 95
          96 97 98 99 100 101
          102 103 104 105 106 107
          108 109 110 111 112 113
          114 115 116 117 118 119
          120 121 122 123 124
        </DataArray>
        <DataArray type="Float64" Name="power_density" format="ascii" RangeMin="111.67606367822953" RangeMax="118.63553043721072">
          118.63553043721072 116.44827450096378 115.05461564206036 117.36526594297848 118.42548563876053 116.92319545573642
          115.42931043109758 116.32202101825122 114.81543287823845 113.0254219969598 115.15990876001143 114.8941886210864
          115.37753474370487 113.41708905591746 114.16286780051962 114.50205124021356 115.38522229564968 113.52729945905753
          113.42682335372865 113.75232508219821 114.31153267492151 114.2510678669181 114.73909798385071 113.39336254465414
          114.81765773327078 116.69501100461736 115.01561276206263 116.31324556344316 114.76790754050859 115.3213025406989
          115.17556911876511 114.85067512109359 115.73762215263514 114.21593454581874 115.75341165262866 116.94135789589622
          115.98529014264514 116.30827721728761 115.96422009646957 115.99314840223435 115.38902967084412 117.2942159570972
          115.93247374402755 115.86370040007111 113.1069189543969 115.12116226471905 113.39599812929504 114.8312979875964
          114.06200173438734 115.4215185337387 115.461124380255 115.76591115053236 115.27407386218165 115.65684785208576
          116.09241702720338 116.2196090071023 114.13398391883291 116.1094981650674 112.1538317040688 114.67107818820776
          115.02533667903 114.02248084469186 116.82765842776328 117.39750106574127 117.16787778932408 115.4730285993579
          112.52041721089054 117.42681173132645 116.94375368432503 117.4595238938225 115.67762041448684 112.84844405631387
          117.54510759412756 117.17751764846943 117.77161688134355 114.59862165876785 114.2542790011043 114.61649517668152
          116.69547698469302 115.49724960564464 114.88923572014977 115.78621506248967 116.8477242441663 114.48786725713083
          116.45449041670311 115.50814691824746 116.73227830841168 115.53455367071159 116.64667103980649 116.508250266273
          115.39570822002625 113.17414399221735 117.08333344094501 116.15173697444504 115.75407951483518 114.75383395581636
          111.67606367822953 117.37878137512173 116.91936529512006 116.91277207339985 116.49043539733606 114.37485211165294
          114.4888478491345 117.35603435873851 114.31404979866696 114.10220867130792 116.25266314464787 117.06346558270748
          116.13649551793165 117.54417516232962 116.13228377121483 117.95525214982982 115.98615476186052 116.10921831295408
          114.555442494787 116.14503442784184 114.8886475331975 117.44234755840085 115.04723087217005 112.61118795002454
          114.62834489987006 112.08842408687633 116.80275313702958 115.75029313919903 115.06334571720268
        </DataArray>
        <DataArray type="Float64" Name="tempe_density" format="ascii" RangeMin="510.2949422188167" RangeMax="519.4650638282163">
          510.2949422188167 510.5444620328319 513.9858568308382 512.681740488231 511.56193947447343 511.92910105218436
          514.8455758612381 513.6932340586407 511.00775846502785 515.1801695574636 512.262188607472 515.3419036089477
          515.3432994557124 517.2575998774228 513.6086510255391 515.8528210047024 519.4650638282163 519.4448338133636
          514.9891874660295 517.0197524553446 515.3746147675181 514.7829886615013 516.1224879782781 515.3771828084857
          517.2010289632294 516.354661543036 517.8415699716019 516.8765972525401 517.2473228902797 517.9116645670791
          512.7933196343442 514.248252294377 513.7148170250882 514.9262604437461 513.4884574221801 513.9602770117245
          514.387523837697 515.5861530728275 513.1365198053456 515.7551257286366 512.264661362497 513.9990660233965
          512.946708763912 514.9226839133287 511.9274375678009 513.6328495478009 512.2638080313234 515.5161026244405
          511.2029976286427 514.7372397677746 513.3206957901313 514.6779810765488 515.8448386344622 514.8086015173762
          515.2419754043547 516.4054229174676 514.5371910853621 515.8488361287771 514.6256977249814 515.7679021741669
          516.3895612777762 515.2292495139043 515.8865224730731 515.8373020260425 517.4514321475867 514.9348649800204
          515.6357919781008 514.1938317805459 516.2333030546234 518.3128805300951 514.102303596864 517.1095921730141
          514.1834890455261 517.9524832293539 518.6330033883694 514.5725969410968 516.0367974655851 516.5596115704869
          515.6265702194949 516.6409907555982 517.0882630384916 516.5050692031084 516.1874078116816 517.2291548850937
          515.6909424678591 515.8205144877728 514.5430851250328 516.573561559019 515.2761243090606 514.503069350596
          514.3985090907418 513.7386562503266 515.4975208015168 515.666026912137 515.3953741523973 514.2384148813267
          515.0716857484806 515.3834538063804 516.6495516264076 515.9373396542269 515.3327390320612 516.0313728496093
          517.1348407636874 516.3406650332876 516.3146494524033 516.8693179024799 515.8097588308584 515.1251854977911
          515.7202254240677 514.44075168471 515.7322676090314 514.5990481777269 516.8823722947341 514.7892690995147
          512.6792806498972 513.5636026372748 511.80999713756694 517.0394746432107 515.6502300229852 512.5387188965318
          513.9009787342524 511.7704889541939 517.7381910495095 516.1625340116648 512.8801544386214
        </DataArray>
        <DataArray type="Float64" Name="temperature" format="ascii" RangeMin="200" RangeMax="200">
          200 200 200 200 200 200
          200 200 200 200 200 200
          200 200 200 200 200 200
          200 200 200 200 200 200
          200 200 200 200 200 200
          200 200 200 200 200 200
          200 200 200 200 200 200
          200 200 200 200 200 200
          200 200 200 200 200 200
          200 200 200 200 200 200
          200 200 200 200 200 200
          200 200 200 200 200 200
          200 200 200 200 200 200
          200 200 200 200 200 200
          200 200 200 200 200 200
          200 200 200 200 200 200
          200 200 200 200 200 200
          200 200 200 200 200 200
          200 200 200 200 200 200
          200 200 200 200 200 200
          200 200 200 200 200
        </DataArray>
        <DataArray type="Float64" Name="dummy" format="ascii" RangeMin="0" RangeMax="0">
          0 0 0 0 0 0
          0 0 0 0 0 0
          0 0 0 0 0 0
          0 0 0 0 0 0
          0 0 0 0 0 0
          0 0 0 0 0 0
          0 0 0 0 0 0
          0 0 0 0 0 0
          0 0 0 0 0 0
          0 0 0 0 0 0
          0 0 0 0 0 0
          0 0 0 0 0 0
          0 0 0 0 0 0
          0 0 0 0 0 0
          0 0 0 0 0 0
          0 0 0 0 0 0
          0 0 0 0 0 0
          0 0 0 0 0 0
          0 0 0 0 0 0
          0 0 0 0 0 0
          0 0 0 0 0
        </DataArray>
      </PointData>
      <CellData>
        <DataArray type="Int32" Name="libmesh_elem_id" format="ascii" RangeMin="0" RangeMax="63">
          0 1 2 3 4 5
          6 7 8 9 10 11
          12 13 14 15 16 17
          18 19 20 21 22 23
          24 25 26 27 28 29
          30 31 32 33 34 35
          36 37 38 39 40 41
          42 43 44 45 46 47
          48 49 50 51 52 53
          54 55 56 57 58 59
          60 61 62 63
        </DataArray>
        <DataArray type="Int32" Name="subdomain_id" format="ascii" RangeMin="0" RangeMax="0">
          0 0 0 0 0 0
          0 0 0 0 0 0
          0 0 0 0 0 0
          0 0 0 0 0 0
          0 0 0 0 0 0
          0 0 0 0 0 0
          0 0 0 0 0 0
          0 0 0 0 0 0
          0 0 0 0 0 0
          0 0 0 0 0 0
          0 0 0 0
        </DataArray>
        <DataArray type="Int32" Name="processor_id" format="ascii" RangeMin="0" RangeMax="0">
          0 0 0 0 0 0
          0 0 0 0 0 0
          0 0 0 0 0 0
          0 0 0 0 0 0
          0 0 0 0 0 0
          0 0 0 0 0 0
          0 0 0 0 0 0
          0 0 0 0 0 0
          0 0 0 0 0 0
          0 0 0 0 0 0
          0 0 0 0
        </DataArray>
      </CellData>
      <Points>
        <DataArray type="Float64" Name="Points" NumberOfComponents="3" format="ascii" RangeMin="0" RangeMax="1.7320508075688772">
          0 0 0 0.25 0 0
          0.25 0.25 0 0 0.25 0
          0 0 0.25 0.25 0 0.25
          0.25 0.25 0.25 0 0.25 0.25
          0.5 0 0 0.5 0.25 0
          0.5 0 0.25 0.5 0.25 0.25
          0.75 0 0 0.75 0.25 0
          0.75 0 0.25 0.75 0.25 0.25
          1 0 0 1 0.25 0
          1 0 0.25 1 0.25 0.25
          0.25 0.5 0 0 0.5 0
          0.25 0.5 0.25 0 0.5 0.25
          0.5 0.5 0 0.5 0.5 0.25
          0.75 0.5 0 0.75 0.5 0.25
          1 0.5 0 1 0.5 0.25
          0.25 0.75 0 0 0.75 0
          0.25 0.75 0.25 0 0.75 0.25
          0.5 0.75 0 0.5 0.75 0.25
          0.75 0.75 0 0.75 0.75 0.25
          1 0.75 0 1 0.75 0.25
          0.25 1 0 0 1 0
          0.25 1 0.25 0 1 0.25
          0.5 1 0 0.5 1 0.25
          0.75 1 0 0.75 1 0.25
          1 1 0 1 1 0.25
          0 0 0.5 0.25 0 0.5
          0.25 0.25 0.5 0 0.25 0.5
          0.5 0 0.5 0.5 0.25 0.5
          0.75 0 0.5 0.75 0.25 0.5
          1 0 0.5 1 0.25 0.5
          0.25 0.5 0.5 0 0.5 0.5
          0.5 0.5 0.5 0.75 0.5 0.5
          1 0.5 0.5 0.25 0.75 0.5
          0 0.75 0.5 0.5 0.75 0.5
          0.75 0.75 0.5 1 0.75 0.5
          0.25 1 0.5 0 1 0.5
          0.5 1 0.5 0.75 1 0.5
          1 1 0.5 0 0 0.75
          0.25 0 0.75 0.25 0.25 0.75
          0 0.25 0.75 0.5 0 0.75
          0.5 0.25 0.75 0.75 0 0.75
          0.75 0.25 0.75 1 0 0.75
          1 0.25 0.75 0.25 0.5 0.75
          0 0.5 0.75 0.5 0.5 0.75
          0.75 0.5 0.75 1 0.5 0.75
          0.25 0.75 0.75 0 0.75 0.75
          0.5 0.75 0.75 0.75 0.75 0.75
          1 0.75 0.75 0.25 1 0.75
          0 1 0.75 0.5 1 0.75
          0.75 1 0.75 1 1 0.75
          0 0 1 0.25 0 1
          0.25 0.25 1 0 0.25 1
          0.5 0 1 0.5 0.25 1
          0.75 0 1 0.75 0.25 1
          1 0 1 1 0.25 1
          0.25 0.5 1 0 0.5 1
          0.5 0.5 1 0.75 0.5 1
          1 0.5 1 0.25 0.75 1
          0 0.75 1 0.5 0.75 1
          0.75 0.75 1 1 0.75 1
          0.25 1 1 0 1 1
          0.5 1 1 0.75 1 1
          1 1 1
          <InformationKey name="L2_NORM_RANGE" location="vtkDataArray" length="2">
            <Value index="0">
              0
            </Value>
            <Value index="1">
              1.7320508076
            </Value>
          </InformationKey>
        </DataArray>
      </Points>
      <Cells>
        <DataArray type="Int64" Name="connectivity" format="ascii" RangeMin="0" RangeMax="124">
          0 1 2 3 4 5
          6 7 1 8 9 2
          5 10 11 6 8 12
          13 9 10 14 15 11
          12 16 17 13 14 18
          19 15 3 2 20 21
          7 6 22 23 2 9
          24 20 6 11 25 22
          9 13 26 24 11 15
          27 25 13 17 28 26
          15 19 29 27 21 20
          30 31 23 22 32 33
          20 24 34 30 22 25
          35 32 24 26 36 34
          25 27 37 35 26 28
          38 36 27 29 39 37
          31 30 40 41 33 32
          42 43 30 34 44 40
          32 35 45 42 34 36
          46 44 35 37 47 45
          36 38 48 46 37 39
          49 47 4 5 6 7
          50 51 52 53 5 10
          11 6 51 54 55 52
          10 14 15 11 54 56
          57 55 14 18 19 15
          56 58 59 57 7 6
          22 23 53 52 60 61
          6 11 25 22 52 55
          62 60 11 15 27 25
          55 57 63 62 15 19
          29 27 57 59 64 63
          23 22 32 33 61 60
          65 66 22 25 35 32
          60 62 67 65 25 27
          37 35 62 63 68 67
          27 29 39 37 63 64
          69 68 33 32 42 43
          66 65 70 71 32 35
          45 42 65 67 72 70
          35 37 47 45 67 68
          73 72 37 39 49 47
          68 69 74 73 50 51
          52 53 75 76 77 78
          51 54 55 52 76 79
          80 77 54 56 57 55
          79 81 82 80 56 58
          59 57 81 83 84 82
          53 52 60 61 78 77
          85 86 52 55 62 60
          77 80 87 85 55 57
          63 62 80 82 88 87
          57 59 64 63 82 84
          89 88 61 60 65 66
          86 85 90 91 60 62
          67 65 85 87 92 90
          62 63 68 67 87 88
          93 92 63 64 69 68
          88 89 94 93 66 65
          70 71 91 90 95 96
          65 67 72 70 90 92
          97 95 67 68 73 72
          92 93 98 97 68 69
          74 73 93 94 99 98
          75 76 77 78 100 101
          102 103 76 79 80 77
          101 104 105 102 79 81
          82 80 104 106 107 105
          81 83 84 82 106 108
          109 107 78 77 85 86
          103 102 110 111 77 80
          87 85 102 105 112 110
          80 82 88 87 105 107
          113 112 82 84 89 88
          107 109 114 113 86 85
          90 91 111 110 115 116
          85 87 92 90 110 112
          117 115 87 88 93 92
          112 113 118 117 88 89
          94 93 113 114 119 118
          91 90 95 96 116 115
          120 121 90 92 97 95
          115 117 122 120 92 93
          98 97 117 118 123 122
          93 94 99 98 118 119
          124 123
        </DataArray>
        <DataArray type="Int64" Name="offsets" format="ascii" RangeMin="8" RangeMax="512">
          8 16 24 32 40 48
          56 64 72 80 88 96
          104 112 120 128 136 144
          152 160 168 176 184 192
          200 208 216 224 232 240
          248 256 264 272 280 288
          296 304 312 320 328 336
          344 352 360 368 376 384
          392 400 408 416 424 432
          440 448 456 464 472 480
          488 496 504 512
        </DataArray>
        <DataArray type="UInt8" Name="types" format="ascii" RangeMin="12" RangeMax="12">
          12 12 12 12 12 12
          12 12 12 12 12 12
          12 12 12 12 12 12
          12 12 12 12 12 12
          12 12 12 12 12 12
          12 12 12 12 12 12
          12 12 12 12 12 12
          12 12 12 12 12 12
          12 12 12 12 12 12
          12 12 12 12 12 12
          12 12 12 12
        </DataArray>
      </Cells>
    </Piece>
  </UnstructuredGrid>
</VTKFile>
