<?xml version="1.0"?>
<VTKFile type="UnstructuredGrid" version="0.1" byte_order="LittleEndian" header_type="UInt32" compressor="vtkZLibDataCompressor">
  <UnstructuredGrid>
    <Piece NumberOfPoints="125" NumberOfCells="64">
      <PointData>
        <DataArray type="Int32" Name="libmesh_node_id" format="ascii" RangeMin="0" RangeMax="124">
          0 1 2 3 4 5
          6 7 8 9 10 11
          12 13 14 15 16 17
          18 19 20 21 22 23
          24 25 26 27 28 29
          30 31 32 33 34 35
          36 37 38 39 40 41
          42 43 44 45 46 47
          48 49 50 51 52 53
          54 55 56 57 58 59
          60 61 62 63 64 65
          66 67 68 69 70 71
          72 73 74 75 76 77
          78 79 80 81 82 83
          84 85 86 87 88 89
          90 91 92 93 94 95
          96 97 98 99 100 101
          102 103 104 105 106 107
          108 109 110 111 112 113
          114 115 116 117 118 119
          120 121 122 123 124
        </DataArray>
        <DataArray type="Float64" Name="power_density" format="ascii" RangeMin="250.28023634624185" RangeMax="258.061789833442">
          250.41962016031522 250.30511609137838 251.5674925354526 251.90135189236318 254.98364830698486 253.6456658972784
          252.9906428475407 253.56572454648241 250.71649594629162 251.60644262720606 253.22628230338947 253.6994482021173
          254.1040901545838 253.65829475129087 254.76410436838097 255.53911279189248 256.9658004390259 255.33733742671166
          255.3833276175549 256.0948903281494 253.97293022971485 255.17743878643228 254.65824654071122 255.28063209301854
          252.6704177568775 254.82867737942664 252.84015763974378 255.58795341277207 253.10790143872995 255.55441305509464
          253.8667229235179 254.17336971451638 254.84321244216554 254.8608643680848 254.03191937808893 254.6508628458152
          252.94867251415533 254.0975827826103 251.39358240465216 253.71900038983645 252.61745436713295 251.37494548057936
          252.7055516007118 251.30826533611247 255.2193925505434 253.81698503362216 253.42952909682106 253.33337995508032
          250.28023634624185 253.1356277082274 255.125143766967 255.56347163097206 254.16306195076845 253.9321747152297
          256.8354667363618 256.4591922445618 254.9175251828831 257.16529786433915 252.16591638801958 255.80616042586195
          254.711776710001 255.18423694079243 256.7039639109157 257.9801101746923 256.7916090067627 255.62659123783465
          255.34219493189744 256.3960932141375 256.2101173874414 255.5390358903797 254.59228132623218 253.0551216457024
          255.46717635920535 255.87308497129348 256.9412582309382 251.42802598208428 253.49860918769923 254.14102315792684
          253.5809589788684 256.9139643164241 256.45571566086585 254.62451753131737 256.39160590933415 250.99029882310083
          254.5728678339218 254.44033508043788 254.89550718485407 255.32421214564036 256.46789453145374 256.27252774764855
          255.2378124852721 255.11285860109186 256.3563735597075 256.38623788978094 255.4224950295992 256.3783919378228
          256.16859480812815 258.061789833442 257.99538100400537 256.45537140864417 252.15344088388906 252.85649081663283
          254.36971557394568 254.52766572787903 255.8930638206118 255.78550060963678 254.83810327904666 255.87254692248405
          251.44961966624635 254.38585804570684 254.8006795925814 254.80636588772805 254.22743347142512 255.31131789932329
          256.962762153231 255.04214445568806 255.08968636004212 255.19036700468132 255.59873405574422 255.81133665345976
          256.36587005747197 257.46853151649714 257.6038044651742 257.4818228787633 255.01924542562483
        </DataArray>
        <DataArray type="Float64" Name="tempe_density" format="ascii" RangeMin="651.39024347281" RangeMax="658.7527797206432">
          653.090268538129 651.8739694962313 653.5685712370616 654.7652109060434 652.7446831854013 652.6211928608068
          654.1346092814856 653.6129904177275 651.6970382287274 652.1689257232988 652.5731136588435 653.8017240690433
          652.8290078385337 652.9160182384918 653.1284289558589 654.1012856519544 652.9216096739464 653.8661165984657
          653.6083331302432 655.2553513110659 655.6001426061846 654.219943502405 654.6310529142164 653.2986654273349
          654.4781736792521 654.5426035886597 652.6334193605572 653.7424464756172 653.2908330725743 654.3631261750127
          655.6523846552956 652.6354680925866 654.6163976800748 652.7336866113185 657.064728773492 656.2461506837816
          655.168509121152 654.9039256188115 654.8768619133245 653.8146586188909 655.367657076114 653.2712024543209
          655.618715233881 653.3513400180209 657.8139234063501 658.4374286694868 658.0732081596395 657.3971006344389
          657.9826812044857 655.8054343796449 652.3396525313563 654.5992167535621 656.1292099552454 654.1564727716438
          654.3673959935165 655.5385505054578 652.0456637086738 653.3098772267822 652.2153164060827 653.6446005814955
          655.3595749558895 654.4365890179181 654.9936421546945 654.2803794094633 654.8560354033987 655.0664279574278
          654.700128839974 656.0151795063164 655.4891241233734 654.3806163089954 657.0729091600051 656.5003726560433
          658.7527797206432 656.9915801727104 654.1230465681015 652.1306890474402 654.9822483394278 656.9669163163567
          655.8590458644665 656.0966874182573 655.7954934410782 652.9173355030982 653.4356768715738 651.4751038010974
          653.3551536292381 656.0569346905874 656.3964772171171 654.114959387409 653.8291649920025 655.1458033732442
          654.3770026794366 655.355076530227 653.9965149456859 654.6016924014996 654.6092837402737 655.5917202709843
          657.5046013077126 655.2574105804528 655.4990730590437 654.1621641914376 651.9811708648416 654.1344793971136
          656.3760600481319 655.8659161150567 656.9077719384411 655.9484082860284 655.171193662033 655.5381523550005
          652.8146313765694 656.0656921191512 655.0566826916436 656.2971637506627 652.8496679634966 653.9490447557555
          656.0149552171422 652.2015601488715 654.1418005105564 651.39024347281 652.8644786727236 653.2097901870138
          652.9073956136061 655.4399348850595 652.0701956522428 653.7359788819045 653.7064228014763
        </DataArray>
        <DataArray type="Float64" Name="temperature" format="ascii" RangeMin="200" RangeMax="200">
          200 200 200 200 200 200
          200 200 200 200 200 200
          200 200 200 200 200 200
          200 200 200 200 200 200
          200 200 200 200 200 200
          200 200 200 200 200 200
          200 200 200 200 200 200
          200 200 200 200 200 200
          200 200 200 200 200 200
          200 200 200 200 200 200
          200 200 200 200 200 200
          200 200 200 200 200 200
          200 200 200 200 200 200
          200 200 200 200 200 200
          200 200 200 200 200 200
          200 200 200 200 200 200
          200 200 200 200 200 200
          200 200 200 200 200 200
          200 200 200 200 200 200
          200 200 200 200 200 200
          200 200 200 200 200
        </DataArray>
        <DataArray type="Float64" Name="dummy" format="ascii" RangeMin="0" RangeMax="0">
          0 0 0 0 0 0
          0 0 0 0 0 0
          0 0 0 0 0 0
          0 0 0 0 0 0
          0 0 0 0 0 0
          0 0 0 0 0 0
          0 0 0 0 0 0
          0 0 0 0 0 0
          0 0 0 0 0 0
          0 0 0 0 0 0
          0 0 0 0 0 0
          0 0 0 0 0 0
          0 0 0 0 0 0
          0 0 0 0 0 0
          0 0 0 0 0 0
          0 0 0 0 0 0
          0 0 0 0 0 0
          0 0 0 0 0 0
          0 0 0 0 0 0
          0 0 0 0 0 0
          0 0 0 0 0
        </DataArray>
      </PointData>
      <CellData>
        <DataArray type="Int32" Name="libmesh_elem_id" format="ascii" RangeMin="0" RangeMax="63">
          0 1 2 3 4 5
          6 7 8 9 10 11
          12 13 14 15 16 17
          18 19 20 21 22 23
          24 25 26 27 28 29
          30 31 32 33 34 35
          36 37 38 39 40 41
          42 43 44 45 46 47
          48 49 50 51 52 53
          54 55 56 57 58 59
          60 61 62 63
        </DataArray>
        <DataArray type="Int32" Name="subdomain_id" format="ascii" RangeMin="0" RangeMax="0">
          0 0 0 0 0 0
          0 0 0 0 0 0
          0 0 0 0 0 0
          0 0 0 0 0 0
          0 0 0 0 0 0
          0 0 0 0 0 0
          0 0 0 0 0 0
          0 0 0 0 0 0
          0 0 0 0 0 0
          0 0 0 0 0 0
          0 0 0 0
        </DataArray>
        <DataArray type="Int32" Name="processor_id" format="ascii" RangeMin="0" RangeMax="0">
          0 0 0 0 0 0
          0 0 0 0 0 0
          0 0 0 0 0 0
          0 0 0 0 0 0
          0 0 0 0 0 0
          0 0 0 0 0 0
          0 0 0 0 0 0
          0 0 0 0 0 0
          0 0 0 0 0 0
          0 0 0 0 0 0
          0 0 0 0
        </DataArray>
      </CellData>
      <Points>
        <DataArray type="Float64" Name="Points" NumberOfComponents="3" format="ascii" RangeMin="0" RangeMax="1.7320508075688772">
          0 0 0 0.25 0 0
          0.25 0.25 0 0 0.25 0
          0 0 0.25 0.25 0 0.25
          0.25 0.25 0.25 0 0.25 0.25
          0.5 0 0 0.5 0.25 0
          0.5 0 0.25 0.5 0.25 0.25
          0.75 0 0 0.75 0.25 0
          0.75 0 0.25 0.75 0.25 0.25
          1 0 0 1 0.25 0
          1 0 0.25 1 0.25 0.25
          0.25 0.5 0 0 0.5 0
          0.25 0.5 0.25 0 0.5 0.25
          0.5 0.5 0 0.5 0.5 0.25
          0.75 0.5 0 0.75 0.5 0.25
          1 0.5 0 1 0.5 0.25
          0.25 0.75 0 0 0.75 0
          0.25 0.75 0.25 0 0.75 0.25
          0.5 0.75 0 0.5 0.75 0.25
          0.75 0.75 0 0.75 0.75 0.25
          1 0.75 0 1 0.75 0.25
          0.25 1 0 0 1 0
          0.25 1 0.25 0 1 0.25
          0.5 1 0 0.5 1 0.25
          0.75 1 0 0.75 1 0.25
          1 1 0 1 1 0.25
          0 0 0.5 0.25 0 0.5
          0.25 0.25 0.5 0 0.25 0.5
          0.5 0 0.5 0.5 0.25 0.5
          0.75 0 0.5 0.75 0.25 0.5
          1 0 0.5 1 0.25 0.5
          0.25 0.5 0.5 0 0.5 0.5
          0.5 0.5 0.5 0.75 0.5 0.5
          1 0.5 0.5 0.25 0.75 0.5
          0 0.75 0.5 0.5 0.75 0.5
          0.75 0.75 0.5 1 0.75 0.5
          0.25 1 0.5 0 1 0.5
          0.5 1 0.5 0.75 1 0.5
          1 1 0.5 0 0 0.75
          0.25 0 0.75 0.25 0.25 0.75
          0 0.25 0.75 0.5 0 0.75
          0.5 0.25 0.75 0.75 0 0.75
          0.75 0.25 0.75 1 0 0.75
          1 0.25 0.75 0.25 0.5 0.75
          0 0.5 0.75 0.5 0.5 0.75
          0.75 0.5 0.75 1 0.5 0.75
          0.25 0.75 0.75 0 0.75 0.75
          0.5 0.75 0.75 0.75 0.75 0.75
          1 0.75 0.75 0.25 1 0.75
          0 1 0.75 0.5 1 0.75
          0.75 1 0.75 1 1 0.75
          0 0 1 0.25 0 1
          0.25 0.25 1 0 0.25 1
          0.5 0 1 0.5 0.25 1
          0.75 0 1 0.75 0.25 1
          1 0 1 1 0.25 1
          0.25 0.5 1 0 0.5 1
          0.5 0.5 1 0.75 0.5 1
          1 0.5 1 0.25 0.75 1
          0 0.75 1 0.5 0.75 1
          0.75 0.75 1 1 0.75 1
          0.25 1 1 0 1 1
          0.5 1 1 0.75 1 1
          1 1 1
          <InformationKey name="L2_NORM_RANGE" location="vtkDataArray" length="2">
            <Value index="0">
              0
            </Value>
            <Value index="1">
              1.7320508076
            </Value>
          </InformationKey>
        </DataArray>
      </Points>
      <Cells>
        <DataArray type="Int64" Name="connectivity" format="ascii" RangeMin="0" RangeMax="124">
          0 1 2 3 4 5
          6 7 1 8 9 2
          5 10 11 6 8 12
          13 9 10 14 15 11
          12 16 17 13 14 18
          19 15 3 2 20 21
          7 6 22 23 2 9
          24 20 6 11 25 22
          9 13 26 24 11 15
          27 25 13 17 28 26
          15 19 29 27 21 20
          30 31 23 22 32 33
          20 24 34 30 22 25
          35 32 24 26 36 34
          25 27 37 35 26 28
          38 36 27 29 39 37
          31 30 40 41 33 32
          42 43 30 34 44 40
          32 35 45 42 34 36
          46 44 35 37 47 45
          36 38 48 46 37 39
          49 47 4 5 6 7
          50 51 52 53 5 10
          11 6 51 54 55 52
          10 14 15 11 54 56
          57 55 14 18 19 15
          56 58 59 57 7 6
          22 23 53 52 60 61
          6 11 25 22 52 55
          62 60 11 15 27 25
          55 57 63 62 15 19
          29 27 57 59 64 63
          23 22 32 33 61 60
          65 66 22 25 35 32
          60 62 67 65 25 27
          37 35 62 63 68 67
          27 29 39 37 63 64
          69 68 33 32 42 43
          66 65 70 71 32 35
          45 42 65 67 72 70
          35 37 47 45 67 68
          73 72 37 39 49 47
          68 69 74 73 50 51
          52 53 75 76 77 78
          51 54 55 52 76 79
          80 77 54 56 57 55
          79 81 82 80 56 58
          59 57 81 83 84 82
          53 52 60 61 78 77
          85 86 52 55 62 60
          77 80 87 85 55 57
          63 62 80 82 88 87
          57 59 64 63 82 84
          89 88 61 60 65 66
          86 85 90 91 60 62
          67 65 85 87 92 90
          62 63 68 67 87 88
          93 92 63 64 69 68
          88 89 94 93 66 65
          70 71 91 90 95 96
          65 67 72 70 90 92
          97 95 67 68 73 72
          92 93 98 97 68 69
          74 73 93 94 99 98
          75 76 77 78 100 101
          102 103 76 79 80 77
          101 104 105 102 79 81
          82 80 104 106 107 105
          81 83 84 82 106 108
          109 107 78 77 85 86
          103 102 110 111 77 80
          87 85 102 105 112 110
          80 82 88 87 105 107
          113 112 82 84 89 88
          107 109 114 113 86 85
          90 91 111 110 115 116
          85 87 92 90 110 112
          117 115 87 88 93 92
          112 113 118 117 88 89
          94 93 113 114 119 118
          91 90 95 96 116 115
          120 121 90 92 97 95
          115 117 122 120 92 93
          98 97 117 118 123 122
          93 94 99 98 118 119
          124 123
        </DataArray>
        <DataArray type="Int64" Name="offsets" format="ascii" RangeMin="8" RangeMax="512">
          8 16 24 32 40 48
          56 64 72 80 88 96
          104 112 120 128 136 144
          152 160 168 176 184 192
          200 208 216 224 232 240
          248 256 264 272 280 288
          296 304 312 320 328 336
          344 352 360 368 376 384
          392 400 408 416 424 432
          440 448 456 464 472 480
          488 496 504 512
        </DataArray>
        <DataArray type="UInt8" Name="types" format="ascii" RangeMin="12" RangeMax="12">
          12 12 12 12 12 12
          12 12 12 12 12 12
          12 12 12 12 12 12
          12 12 12 12 12 12
          12 12 12 12 12 12
          12 12 12 12 12 12
          12 12 12 12 12 12
          12 12 12 12 12 12
          12 12 12 12 12 12
          12 12 12 12 12 12
          12 12 12 12
        </DataArray>
      </Cells>
    </Piece>
  </UnstructuredGrid>
</VTKFile>
