<?xml version="1.0"?>
<VTKFile type="UnstructuredGrid" version="0.1" byte_order="LittleEndian" header_type="UInt32" compressor="vtkZLibDataCompressor">
  <UnstructuredGrid>
    <Piece NumberOfPoints="44" NumberOfCells="15">
      <PointData>
        <DataArray type="Int32" Name="libmesh_node_id" format="ascii" RangeMin="0" RangeMax="71">
          0 1 2 3 4 5
          6 7 8 9 10 11
          12 13 14 15 18 19
          21 23 40 41 42 43
          44 45 46 47 48 49
          50 51 60 61 62 63
          64 65 66 67 68 69
          70 71
        </DataArray>
        <DataArray type="Float64" Name="power_density" format="ascii" RangeMin="110" RangeMax="2167.5">
          110 115 615 610 125 130
          387.5 382.5 125 625 140 397.5
          130 630 145 402.5 910 905
          920 925 170 175 190 185
          185 200 190 205 1182.5 1177.5
          1192.5 1197.5 1155 1160 1175 1170
          1170 1185 1175 1190 2167.5 2162.5
          2050 1927.5
        </DataArray>
        <DataArray type="Float64" Name="tempe_density" format="ascii" RangeMin="510" RangeMax="2567.5">
          510 515 1015 1010 525 530
          787.5 782.5 525 1025 540 797.5
          530 1030 545 802.5 1310 1305
          1320 1325 570 575 590 585
          585 600 590 605 1582.5 1577.5
          1592.5 1597.5 1555 1560 1575 1570
          1570 1585 1575 1590 2567.5 2562.5
          2450 2327.5
        </DataArray>
        <DataArray type="Float64" Name="temperature" format="ascii" RangeMin="0" RangeMax="0">
          0 0 0 0 0 0
          0 0 0 0 0 0
          0 0 0 0 0 0
          0 0 0 0 0 0
          0 0 0 0 0 0
          0 0 0 0 0 0
          0 0 0 0 0 0
          0 0
        </DataArray>
        <DataArray type="Float64" Name="dummy" format="ascii" RangeMin="0" RangeMax="0">
          0 0 0 0 0 0
          0 0 0 0 0 0
          0 0 0 0 0 0
          0 0 0 0 0 0
          0 0 0 0 0 0
          0 0 0 0 0 0
          0 0 0 0 0 0
          0 0
        </DataArray>
      </PointData>
      <CellData>
        <DataArray type="Int32" Name="libmesh_elem_id" format="ascii" RangeMin="0" RangeMax="29">
          0 1 2 12 13 14
          15 16 17 24 25 26
          27 28 29
        </DataArray>
        <DataArray type="Int32" Name="subdomain_id" format="ascii" RangeMin="0" RangeMax="0">
          0 0 0 0 0 0
          0 0 0 0 0 0
          0 0 0
        </DataArray>
        <DataArray type="Int32" Name="processor_id" format="ascii" RangeMin="0" RangeMax="0">
          0 0 0 0 0 0
          0 0 0 0 0 0
          0 0 0
        </DataArray>
      </CellData>
      <Points>
        <DataArray type="Float64" Name="Points" NumberOfComponents="3" format="ascii" RangeMin="0" RangeMax="4.69041575982343">
          0 0 0 1 0 0
          1 1 0 0 1 0
          0 0 1 1 0 1
          1 1 1 0 1 1
          2 0 0 2 1 0
          2 0 1 2 1 1
          3 0 0 3 1 0
          3 0 1 3 1 1
          1 2 1 0 2 1
          2 2 1 3 2 1
          0 0 2 1 0 2
          1 1 2 0 1 2
          2 0 2 2 1 2
          3 0 2 3 1 2
          1 2 2 0 2 2
          2 2 2 3 2 2
          0 0 3 1 0 3
          1 1 3 0 1 3
          2 0 3 2 1 3
          3 0 3 3 1 3
          1 2 3 0 2 3
          2 2 3 3 2 3
          <InformationKey name="L2_NORM_RANGE" location="vtkDataArray" length="2">
            <Value index="0">
              0
            </Value>
            <Value index="1">
              4.6904157598
            </Value>
          </InformationKey>
        </DataArray>
      </Points>
      <Cells>
        <DataArray type="Int64" Name="connectivity" format="ascii" RangeMin="0" RangeMax="43">
          0 1 2 3 4 5
          6 7 1 8 9 2
          5 10 11 6 8 12
          13 9 10 14 15 11
          4 5 6 7 20 21
          22 23 5 10 11 6
          21 24 25 22 10 14
          15 11 24 26 27 25
          7 6 16 17 23 22
          28 29 6 11 18 16
          22 25 30 28 11 15
          19 18 25 27 31 30
          20 21 22 23 32 33
          34 35 21 24 25 22
          33 36 37 34 24 26
          27 25 36 38 39 37
          23 22 28 29 35 34
          40 41 22 25 30 28
          34 37 42 40 25 27
          31 30 37 39 43 42
        </DataArray>
        <DataArray type="Int64" Name="offsets" format="ascii" RangeMin="8" RangeMax="120">
          8 16 24 32 40 48
          56 64 72 80 88 96
          104 112 120
        </DataArray>
        <DataArray type="UInt8" Name="types" format="ascii" RangeMin="12" RangeMax="12">
          12 12 12 12 12 12
          12 12 12 12 12 12
          12 12 12
        </DataArray>
      </Cells>
    </Piece>
  </UnstructuredGrid>
</VTKFile>
