<?xml version="1.0"?>
<VTKFile type="UnstructuredGrid" version="0.1" byte_order="LittleEndian" header_type="UInt32" compressor="vtkZLibDataCompressor">
  <UnstructuredGrid>
    <Piece NumberOfPoints="125" NumberOfCells="64">
      <PointData>
        <DataArray type="Int32" Name="libmesh_node_id" format="ascii" RangeMin="0" RangeMax="124">
          0 1 2 3 4 5
          6 7 8 9 10 11
          12 13 14 15 16 17
          18 19 20 21 22 23
          24 25 26 27 28 29
          30 31 32 33 34 35
          36 37 38 39 40 41
          42 43 44 45 46 47
          48 49 50 51 52 53
          54 55 56 57 58 59
          60 61 62 63 64 65
          66 67 68 69 70 71
          72 73 74 75 76 77
          78 79 80 81 82 83
          84 85 86 87 88 89
          90 91 92 93 94 95
          96 97 98 99 100 101
          102 103 104 105 106 107
          108 109 110 111 112 113
          114 115 116 117 118 119
          120 121 122 123 124
        </DataArray>
        <DataArray type="Float64" Name="power_density" format="ascii" RangeMin="270.64874037422663" RangeMax="279.17225803490476">
          274.92983667209853 275.825194276553 273.3869130913394 272.56698423341163 277.1269649429132 275.359927742798
          274.2674671586788 275.5756074231581 277.83854937840886 275.1062030796926 276.1070546196444 275.2433746072968
          277.8720942112076 274.9422948049056 276.5714863705478 275.59192073746374 276.7876415466051 273.8790253996932
          274.5217540444896 273.6564191545333 273.1827466940804 272.3581052175333 273.67726578532677 274.3046782149477
          274.54282646689023 274.8116508638901 274.70674143878637 275.86459268601527 274.3352181144197 275.155736999956
          274.7126599212683 272.9389559441142 275.1864119727101 274.86207521076824 277.45875913135126 276.7137328897798
          278.0703480521527 277.05576692029564 277.70954174002543 276.1948167956837 274.00845836050166 271.3658332478865
          276.1932989493264 275.139043895044 278.2057221098983 278.1838586467286 278.7397086253363 276.9947035729404
          277.71905650399276 274.8692438560324 279.17225803490476 274.70404298021276 274.63806535901597 277.59340199256974
          274.14562750936005 275.1860291659696 275.82000475389157 276.39998301457445 273.5845824145837 274.11063642267186
          275.05977717376607 276.0882731510744 275.2868991442891 275.8927851208689 275.24305314961725 276.1989130775327
          276.91945696963177 275.62745553439123 275.7365787209657 275.6966155585826 276.8503595453525 277.6769135873494
          276.9075436027833 276.6675484754509 275.54381524869063 275.06081640249624 273.73405751077894 273.5040892762758
          273.7785847605424 275.4127117032137 275.39650425016623 276.6660356758309 276.0725231742377 274.9139465642963
          274.5816316401523 275.67754811781566 275.0497285617961 275.81874951832344 275.1742004313793 275.0162694999469
          276.66063986667666 276.4835394140952 275.94813483600916 275.18968770529347 275.32084605782666 275.2403045394947
          275.3639748231868 275.63906743249004 275.50998522047274 274.85846983176793 271.1012099489109 272.95469027017543
          272.88006906053783 270.95459614884993 276.90972824858716 275.8014963032943 276.96294037376686 275.5866269893486
          274.9145948417994 274.37580334433426 275.4073267646722 274.1741620338055 276.14417600895877 275.58527455426497
          275.5226885861514 276.58361760243986 275.91335936634914 276.6100652514442 274.947403757094 273.92855284983017
          275.1580295264356 274.28637701387635 275.62504284297245 272.93457201058834 270.64874037422663
        </DataArray>
        <DataArray type="Float64" Name="tempe_density" format="ascii" RangeMin="670.3224775920716" RangeMax="679.5420928935495">
          675.9301694927824 677.0559951496544 676.385387544004 675.460116622711 675.1436918875353 675.9902680386188
          675.2559557286863 674.6875077064971 675.5300430285682 676.5295399757671 676.0579886933547 675.3802264645044
          674.5591733566121 676.9099494657855 674.3700554279651 675.3889444681332 676.2400814626142 678.0714774453338
          673.460977658923 675.8418397581333 675.5671649183555 673.8329441309014 675.5356155750644 674.5878298891591
          677.7615875829987 675.4268224752905 678.7027864897022 676.0770309274096 679.1837835192171 677.7838181652081
          675.1232704404065 672.7536315220204 676.3743327504915 675.3461982993208 677.0969241280144 676.0453324474199
          675.8054559898849 674.9233003416269 674.9099730825333 675.1584029900763 674.8269909824551 672.8314385348776
          676.1990777696079 675.7480603457822 676.1997100129973 675.9394841799128 673.466064575324 674.1003723367361
          671.3552525546858 672.9718715070801 672.5616977475785 674.092215454927 674.0008088490009 674.1308562544962
          676.2529261163672 674.5836725152516 675.1487953354801 675.2874238867524 673.414471600501 675.2782641865072
          676.0148625767225 676.7251547270317 673.7778079657242 673.8619308460043 675.4728161869734 677.3624886715692
          676.7521835956261 675.7759301188505 673.8749704521281 674.170874414067 676.6046544327683 675.7540724986029
          676.9106632203888 675.4521316502721 674.5381732267003 674.8705940376319 675.5772269878918 674.5788960489483
          675.5971864942776 675.0744840562847 674.6576907529674 675.0306163285868 676.2090240634117 676.1961244827562
          676.663272224508 675.4847579870435 677.6317976540034 673.9707465313802 674.9233388648971 675.2429029871174
          676.1234013146877 675.2613932866894 675.9579670061704 675.0578524477556 675.1851802258565 674.8578517652934
          671.5829702162953 678.2153383992306 677.6564589639539 677.0149744437379 678.9750068623949 677.8945639935129
          675.2826983132637 676.8475592698458 674.229050237976 674.3789494286733 673.9445794855316 675.7111398237998
          676.245179619742 676.3822181469347 674.4438570524153 677.1560015013604 673.4779344988942 675.5740914029027
          675.9240264114871 675.1472203468136 674.9571844587479 675.357814541465 676.4069086846245 677.4354445211982
          674.0775592218108 670.3224775920716 678.2886087045122 679.1433347255117 679.5420928935495
        </DataArray>
        <DataArray type="Float64" Name="temperature" format="ascii" RangeMin="200" RangeMax="200">
          200 200 200 200 200 200
          200 200 200 200 200 200
          200 200 200 200 200 200
          200 200 200 200 200 200
          200 200 200 200 200 200
          200 200 200 200 200 200
          200 200 200 200 200 200
          200 200 200 200 200 200
          200 200 200 200 200 200
          200 200 200 200 200 200
          200 200 200 200 200 200
          200 200 200 200 200 200
          200 200 200 200 200 200
          200 200 200 200 200 200
          200 200 200 200 200 200
          200 200 200 200 200 200
          200 200 200 200 200 200
          200 200 200 200 200 200
          200 200 200 200 200 200
          200 200 200 200 200 200
          200 200 200 200 200
        </DataArray>
        <DataArray type="Float64" Name="dummy" format="ascii" RangeMin="0" RangeMax="0">
          0 0 0 0 0 0
          0 0 0 0 0 0
          0 0 0 0 0 0
          0 0 0 0 0 0
          0 0 0 0 0 0
          0 0 0 0 0 0
          0 0 0 0 0 0
          0 0 0 0 0 0
          0 0 0 0 0 0
          0 0 0 0 0 0
          0 0 0 0 0 0
          0 0 0 0 0 0
          0 0 0 0 0 0
          0 0 0 0 0 0
          0 0 0 0 0 0
          0 0 0 0 0 0
          0 0 0 0 0 0
          0 0 0 0 0 0
          0 0 0 0 0 0
          0 0 0 0 0 0
          0 0 0 0 0
        </DataArray>
      </PointData>
      <CellData>
        <DataArray type="Int32" Name="libmesh_elem_id" format="ascii" RangeMin="0" RangeMax="63">
          0 1 2 3 4 5
          6 7 8 9 10 11
          12 13 14 15 16 17
          18 19 20 21 22 23
          24 25 26 27 28 29
          30 31 32 33 34 35
          36 37 38 39 40 41
          42 43 44 45 46 47
          48 49 50 51 52 53
          54 55 56 57 58 59
          60 61 62 63
        </DataArray>
        <DataArray type="Int32" Name="subdomain_id" format="ascii" RangeMin="0" RangeMax="0">
          0 0 0 0 0 0
          0 0 0 0 0 0
          0 0 0 0 0 0
          0 0 0 0 0 0
          0 0 0 0 0 0
          0 0 0 0 0 0
          0 0 0 0 0 0
          0 0 0 0 0 0
          0 0 0 0 0 0
          0 0 0 0 0 0
          0 0 0 0
        </DataArray>
        <DataArray type="Int32" Name="processor_id" format="ascii" RangeMin="0" RangeMax="0">
          0 0 0 0 0 0
          0 0 0 0 0 0
          0 0 0 0 0 0
          0 0 0 0 0 0
          0 0 0 0 0 0
          0 0 0 0 0 0
          0 0 0 0 0 0
          0 0 0 0 0 0
          0 0 0 0 0 0
          0 0 0 0 0 0
          0 0 0 0
        </DataArray>
      </CellData>
      <Points>
        <DataArray type="Float64" Name="Points" NumberOfComponents="3" format="ascii" RangeMin="0" RangeMax="1.7320508075688772">
          0 0 0 0.25 0 0
          0.25 0.25 0 0 0.25 0
          0 0 0.25 0.25 0 0.25
          0.25 0.25 0.25 0 0.25 0.25
          0.5 0 0 0.5 0.25 0
          0.5 0 0.25 0.5 0.25 0.25
          0.75 0 0 0.75 0.25 0
          0.75 0 0.25 0.75 0.25 0.25
          1 0 0 1 0.25 0
          1 0 0.25 1 0.25 0.25
          0.25 0.5 0 0 0.5 0
          0.25 0.5 0.25 0 0.5 0.25
          0.5 0.5 0 0.5 0.5 0.25
          0.75 0.5 0 0.75 0.5 0.25
          1 0.5 0 1 0.5 0.25
          0.25 0.75 0 0 0.75 0
          0.25 0.75 0.25 0 0.75 0.25
          0.5 0.75 0 0.5 0.75 0.25
          0.75 0.75 0 0.75 0.75 0.25
          1 0.75 0 1 0.75 0.25
          0.25 1 0 0 1 0
          0.25 1 0.25 0 1 0.25
          0.5 1 0 0.5 1 0.25
          0.75 1 0 0.75 1 0.25
          1 1 0 1 1 0.25
          0 0 0.5 0.25 0 0.5
          0.25 0.25 0.5 0 0.25 0.5
          0.5 0 0.5 0.5 0.25 0.5
          0.75 0 0.5 0.75 0.25 0.5
          1 0 0.5 1 0.25 0.5
          0.25 0.5 0.5 0 0.5 0.5
          0.5 0.5 0.5 0.75 0.5 0.5
          1 0.5 0.5 0.25 0.75 0.5
          0 0.75 0.5 0.5 0.75 0.5
          0.75 0.75 0.5 1 0.75 0.5
          0.25 1 0.5 0 1 0.5
          0.5 1 0.5 0.75 1 0.5
          1 1 0.5 0 0 0.75
          0.25 0 0.75 0.25 0.25 0.75
          0 0.25 0.75 0.5 0 0.75
          0.5 0.25 0.75 0.75 0 0.75
          0.75 0.25 0.75 1 0 0.75
          1 0.25 0.75 0.25 0.5 0.75
          0 0.5 0.75 0.5 0.5 0.75
          0.75 0.5 0.75 1 0.5 0.75
          0.25 0.75 0.75 0 0.75 0.75
          0.5 0.75 0.75 0.75 0.75 0.75
          1 0.75 0.75 0.25 1 0.75
          0 1 0.75 0.5 1 0.75
          0.75 1 0.75 1 1 0.75
          0 0 1 0.25 0 1
          0.25 0.25 1 0 0.25 1
          0.5 0 1 0.5 0.25 1
          0.75 0 1 0.75 0.25 1
          1 0 1 1 0.25 1
          0.25 0.5 1 0 0.5 1
          0.5 0.5 1 0.75 0.5 1
          1 0.5 1 0.25 0.75 1
          0 0.75 1 0.5 0.75 1
          0.75 0.75 1 1 0.75 1
          0.25 1 1 0 1 1
          0.5 1 1 0.75 1 1
          1 1 1
          <InformationKey name="L2_NORM_RANGE" location="vtkDataArray" length="2">
            <Value index="0">
              0
            </Value>
            <Value index="1">
              1.7320508076
            </Value>
          </InformationKey>
        </DataArray>
      </Points>
      <Cells>
        <DataArray type="Int64" Name="connectivity" format="ascii" RangeMin="0" RangeMax="124">
          0 1 2 3 4 5
          6 7 1 8 9 2
          5 10 11 6 8 12
          13 9 10 14 15 11
          12 16 17 13 14 18
          19 15 3 2 20 21
          7 6 22 23 2 9
          24 20 6 11 25 22
          9 13 26 24 11 15
          27 25 13 17 28 26
          15 19 29 27 21 20
          30 31 23 22 32 33
          20 24 34 30 22 25
          35 32 24 26 36 34
          25 27 37 35 26 28
          38 36 27 29 39 37
          31 30 40 41 33 32
          42 43 30 34 44 40
          32 35 45 42 34 36
          46 44 35 37 47 45
          36 38 48 46 37 39
          49 47 4 5 6 7
          50 51 52 53 5 10
          11 6 51 54 55 52
          10 14 15 11 54 56
          57 55 14 18 19 15
          56 58 59 57 7 6
          22 23 53 52 60 61
          6 11 25 22 52 55
          62 60 11 15 27 25
          55 57 63 62 15 19
          29 27 57 59 64 63
          23 22 32 33 61 60
          65 66 22 25 35 32
          60 62 67 65 25 27
          37 35 62 63 68 67
          27 29 39 37 63 64
          69 68 33 32 42 43
          66 65 70 71 32 35
          45 42 65 67 72 70
          35 37 47 45 67 68
          73 72 37 39 49 47
          68 69 74 73 50 51
          52 53 75 76 77 78
          51 54 55 52 76 79
          80 77 54 56 57 55
          79 81 82 80 56 58
          59 57 81 83 84 82
          53 52 60 61 78 77
          85 86 52 55 62 60
          77 80 87 85 55 57
          63 62 80 82 88 87
          57 59 64 63 82 84
          89 88 61 60 65 66
          86 85 90 91 60 62
          67 65 85 87 92 90
          62 63 68 67 87 88
          93 92 63 64 69 68
          88 89 94 93 66 65
          70 71 91 90 95 96
          65 67 72 70 90 92
          97 95 67 68 73 72
          92 93 98 97 68 69
          74 73 93 94 99 98
          75 76 77 78 100 101
          102 103 76 79 80 77
          101 104 105 102 79 81
          82 80 104 106 107 105
          81 83 84 82 106 108
          109 107 78 77 85 86
          103 102 110 111 77 80
          87 85 102 105 112 110
          80 82 88 87 105 107
          113 112 82 84 89 88
          107 109 114 113 86 85
          90 91 111 110 115 116
          85 87 92 90 110 112
          117 115 87 88 93 92
          112 113 118 117 88 89
          94 93 113 114 119 118
          91 90 95 96 116 115
          120 121 90 92 97 95
          115 117 122 120 92 93
          98 97 117 118 123 122
          93 94 99 98 118 119
          124 123
        </DataArray>
        <DataArray type="Int64" Name="offsets" format="ascii" RangeMin="8" RangeMax="512">
          8 16 24 32 40 48
          56 64 72 80 88 96
          104 112 120 128 136 144
          152 160 168 176 184 192
          200 208 216 224 232 240
          248 256 264 272 280 288
          296 304 312 320 328 336
          344 352 360 368 376 384
          392 400 408 416 424 432
          440 448 456 464 472 480
          488 496 504 512
        </DataArray>
        <DataArray type="UInt8" Name="types" format="ascii" RangeMin="12" RangeMax="12">
          12 12 12 12 12 12
          12 12 12 12 12 12
          12 12 12 12 12 12
          12 12 12 12 12 12
          12 12 12 12 12 12
          12 12 12 12 12 12
          12 12 12 12 12 12
          12 12 12 12 12 12
          12 12 12 12 12 12
          12 12 12 12 12 12
          12 12 12 12
        </DataArray>
      </Cells>
    </Piece>
  </UnstructuredGrid>
</VTKFile>
