<?xml version="1.0"?>
<VTKFile type="UnstructuredGrid" version="0.1" byte_order="LittleEndian" header_type="UInt32" compressor="vtkZLibDataCompressor">
  <UnstructuredGrid>
    <Piece NumberOfPoints="16" NumberOfCells="3">
      <PointData>
        <DataArray type="Int32" Name="libmesh_node_id" format="ascii" RangeMin="60" RangeMax="105">
          60 61 62 63 80 81
          83 100 101 103 82 102
          84 85 104 105
        </DataArray>
        <DataArray type="Float64" Name="power_density" format="ascii" RangeMin="5872.5" RangeMax="11618.75">
          11110 11362.5 11618.75 11367.5 7115 7367.5
          7865 7120 7125 8115 7492.5 7117.5
          6870 6495 6630 5872.5
        </DataArray>
        <DataArray type="Float64" Name="tempe_density" format="ascii" RangeMin="6272.5" RangeMax="12018.75">
          11510 11762.5 12018.75 11767.5 7515 7767.5
          8265 7520 7525 8515 7892.5 7517.5
          7270 6895 7030 6272.5
        </DataArray>
        <DataArray type="Float64" Name="temperature" format="ascii" RangeMin="0" RangeMax="0">
          0 0 0 0 0 0
          0 0 0 0 0 0
          0 0 0 0
        </DataArray>
        <DataArray type="Float64" Name="dummy" format="ascii" RangeMin="0" RangeMax="0">
          0 0 0 0 0 0
          0 0 0 0 0 0
          0 0 0 0
        </DataArray>
      </PointData>
      <CellData>
        <DataArray type="Int32" Name="libmesh_elem_id" format="ascii" RangeMin="36" RangeMax="49">
          36 48 49
        </DataArray>
        <DataArray type="Int32" Name="subdomain_id" format="ascii" RangeMin="0" RangeMax="0">
          0 0 0
        </DataArray>
        <DataArray type="Int32" Name="processor_id" format="ascii" RangeMin="7" RangeMax="7">
          7 7 7
        </DataArray>
      </CellData>
      <Points>
        <DataArray type="Float64" Name="Points" NumberOfComponents="3" format="ascii" RangeMin="3" RangeMax="5.477225575051661">
          0 0 3 1 0 3
          1 1 3 0 1 3
          0 0 4 1 0 4
          0 1 4 0 0 5
          1 0 5 0 1 5
          1 1 4 1 1 5
          2 0 4 2 1 4
          2 0 5 2 1 5
          <InformationKey name="L2_NORM_RANGE" location="vtkDataArray" length="2">
            <Value index="0">
              3
            </Value>
            <Value index="1">
              5.4772255751
            </Value>
          </InformationKey>
        </DataArray>
      </Points>
      <Cells>
        <DataArray type="Int64" Name="connectivity" format="ascii" RangeMin="0" RangeMax="15">
          0 1 2 3 4 5
          10 6 4 5 10 6
          7 8 11 9 5 12
          13 10 8 14 15 11
        </DataArray>
        <DataArray type="Int64" Name="offsets" format="ascii" RangeMin="8" RangeMax="24">
          8 16 24
        </DataArray>
        <DataArray type="UInt8" Name="types" format="ascii" RangeMin="12" RangeMax="12">
          12 12 12
        </DataArray>
      </Cells>
    </Piece>
  </UnstructuredGrid>
</VTKFile>
