<?xml version="1.0"?>
<VTKFile type="UnstructuredGrid" version="0.1" byte_order="LittleEndian" header_type="UInt32" compressor="vtkZLibDataCompressor">
  <UnstructuredGrid>
    <Piece NumberOfPoints="125" NumberOfCells="64">
      <PointData>
        <DataArray type="Int32" Name="libmesh_node_id" format="ascii" RangeMin="0" RangeMax="124">
          0 1 2 3 4 5
          6 7 8 9 10 11
          12 13 14 15 16 17
          18 19 20 21 22 23
          24 25 26 27 28 29
          30 31 32 33 34 35
          36 37 38 39 40 41
          42 43 44 45 46 47
          48 49 50 51 52 53
          54 55 56 57 58 59
          60 61 62 63 64 65
          66 67 68 69 70 71
          72 73 74 75 76 77
          78 79 80 81 82 83
          84 85 86 87 88 89
          90 91 92 93 94 95
          96 97 98 99 100 101
          102 103 104 105 106 107
          108 109 110 111 112 113
          114 115 116 117 118 119
          120 121 122 123 124
        </DataArray>
        <DataArray type="Float64" Name="power_density" format="ascii" RangeMin="231.8507390637488" RangeMax="239.0598301558891">
          236.93878579926212 237.34619221593175 236.64636890728542 236.49726938976497 234.69248011251355 235.36566215711434
          235.9676444076474 235.98865445084516 237.7157656994458 235.84135904479703 236.61951317154706 235.41294715105303
          237.11713606285264 234.4340202842716 236.9030351607381 235.30632613152142 236.55633935941515 233.98079090375506
          236.60588818009734 235.7333923253865 234.37957462057156 234.3941819723498 235.2180466664546 236.71175428639486
          234.26591923035653 233.78853135475583 233.52621182538545 234.3977647976077 232.88555245885118 234.94280593221808
          234.70342264029443 235.89622056016043 235.2311272487458 237.5186759217472 235.72161589655468 235.06080645368013
          235.92172710179585 236.12178677897145 233.91084713091075 235.06553922632705 236.59424163808487 239.0598301558891
          236.59578782276287 238.89867205988133 236.87834572254462 236.75093132840772 236.5419350585114 237.15766106503227
          233.45583179221416 235.10636305889355 235.60072743419818 234.7775536028748 236.47133515562814 237.35248799065192
          234.70752736788344 234.91198960270418 236.63905365024291 236.15749558013204 237.8174323362704 238.08119427546012
          236.37788214231526 237.65849706193927 234.75305664527446 235.04730106377357 235.68575605968948 234.91510742393388
          236.74983993953867 234.38484482577786 234.688462240096 233.68760973696538 235.23956727161868 237.28693430230447
          234.38002819853165 234.958259862666 234.34866356920165 235.64930063574852 235.50866094574195 236.28827561723296
          236.1655158899494 234.12267840972402 234.68043725498632 234.21995605280551 234.32957451410368 235.56257654189844
          235.7093098627512 236.44912094185105 235.8105721512452 235.43188663315442 233.8478482180727 233.91959290229352
          235.01757953873135 234.70359188706783 235.2323253262407 233.76018901222898 232.38729456237144 234.20480748248454
          234.4677706157956 234.83907348642117 234.26387456371435 232.79144650375986 232.54332082886566 234.84734678403126
          234.9228008312191 233.10609531052035 234.35356272732943 234.52143056187327 231.8507390637488 232.5227898467144
          232.14572541203557 232.74222492160013 236.19899631140925 235.33347677905186 234.668803454915 232.87041207842822
          233.46773309079302 235.96377608679208 235.04863517839223 236.09495801173136 234.4653000004131 233.61960097255536
          234.52781442917257 233.0991865908558 237.54160751004977 236.38461647364977 233.6424601946894
        </DataArray>
        <DataArray type="Float64" Name="tempe_density" format="ascii" RangeMin="631.2219634226457" RangeMax="639.768853690294">
          635.4489836071759 634.1323389584913 633.5713636727507 633.3272975358831 635.4665572242629 634.5085549147826
          633.5934955408347 634.083720055318 635.9047054108273 634.9983115838473 634.7513311803024 634.2243371605111
          637.5204025248291 636.3418850226562 635.1223658016038 635.2645757692933 636.0470885378104 636.5025766872363
          634.2926218479054 635.183748243916 634.8549290461726 634.5118344573191 633.7353681156881 634.4016840132132
          635.4354560098996 634.6532127175142 636.650801453207 636.886564706999 637.6287145216409 637.5357561971326
          637.1057583611837 638.7934555701709 635.3653723511852 636.9690700311096 636.8396797638823 635.5680290099668
          638.0555691865757 637.8880976414783 637.8498399975831 638.4018119342838 637.5120470170324 639.768853690294
          635.9384446378813 637.835654922166 636.9003652648327 635.526975725625 637.9729029872207 637.4098516059414
          637.4003157885468 637.8069861142292 635.2200099281341 635.0205142527956 634.7284245528625 634.895929846097
          633.4610035538973 634.6483081935851 633.4040364339982 635.2012363747307 634.7070843376589 635.666775621919
          634.5814082563766 635.0969706017424 635.7962105326453 637.2332655610207 636.9399559677615 635.0226032284121
          635.1327242760342 636.1930691075708 637.6218320368645 637.7700080393777 635.3187247970006 634.6433571126433
          636.629329983124 637.7755692671506 638.2865710494111 635.8418455091786 636.5699626956505 636.4075492182185
          634.7918911706778 634.1058785649611 635.6677767654515 632.9314156131798 635.118502159292 634.9491539785593
          636.9246580534405 635.9825497881222 635.5865073441489 636.7769513617009 637.297608124201 637.4199057570962
          634.9753904509603 634.8670943015342 637.0608259815497 638.1050660850727 637.1721668074324 634.2308170664625
          632.3031107469473 637.7974242056396 638.9205046271477 638.4046842289939 636.7278020034389 637.9836677567837
          636.9738767396311 634.6320652239143 634.8877069719051 635.4892998809078 631.7790874367416 634.0217980850532
          633.0222944398013 636.3806846636386 635.4180902486949 635.2706070539202 635.8324510832396 637.2510130871515
          638.4026974512935 633.5305607862826 634.6134245430483 636.0318920040088 638.6870941927973 637.758101407094
          632.1890267976539 631.2219634226457 636.4897746314488 639.1366709446563 638.4498827990772
        </DataArray>
        <DataArray type="Float64" Name="temperature" format="ascii" RangeMin="200" RangeMax="200">
          200 200 200 200 200 200
          200 200 200 200 200 200
          200 200 200 200 200 200
          200 200 200 200 200 200
          200 200 200 200 200 200
          200 200 200 200 200 200
          200 200 200 200 200 200
          200 200 200 200 200 200
          200 200 200 200 200 200
          200 200 200 200 200 200
          200 200 200 200 200 200
          200 200 200 200 200 200
          200 200 200 200 200 200
          200 200 200 200 200 200
          200 200 200 200 200 200
          200 200 200 200 200 200
          200 200 200 200 200 200
          200 200 200 200 200 200
          200 200 200 200 200 200
          200 200 200 200 200 200
          200 200 200 200 200
        </DataArray>
        <DataArray type="Float64" Name="dummy" format="ascii" RangeMin="0" RangeMax="0">
          0 0 0 0 0 0
          0 0 0 0 0 0
          0 0 0 0 0 0
          0 0 0 0 0 0
          0 0 0 0 0 0
          0 0 0 0 0 0
          0 0 0 0 0 0
          0 0 0 0 0 0
          0 0 0 0 0 0
          0 0 0 0 0 0
          0 0 0 0 0 0
          0 0 0 0 0 0
          0 0 0 0 0 0
          0 0 0 0 0 0
          0 0 0 0 0 0
          0 0 0 0 0 0
          0 0 0 0 0 0
          0 0 0 0 0 0
          0 0 0 0 0 0
          0 0 0 0 0 0
          0 0 0 0 0
        </DataArray>
      </PointData>
      <CellData>
        <DataArray type="Int32" Name="libmesh_elem_id" format="ascii" RangeMin="0" RangeMax="63">
          0 1 2 3 4 5
          6 7 8 9 10 11
          12 13 14 15 16 17
          18 19 20 21 22 23
          24 25 26 27 28 29
          30 31 32 33 34 35
          36 37 38 39 40 41
          42 43 44 45 46 47
          48 49 50 51 52 53
          54 55 56 57 58 59
          60 61 62 63
        </DataArray>
        <DataArray type="Int32" Name="subdomain_id" format="ascii" RangeMin="0" RangeMax="0">
          0 0 0 0 0 0
          0 0 0 0 0 0
          0 0 0 0 0 0
          0 0 0 0 0 0
          0 0 0 0 0 0
          0 0 0 0 0 0
          0 0 0 0 0 0
          0 0 0 0 0 0
          0 0 0 0 0 0
          0 0 0 0 0 0
          0 0 0 0
        </DataArray>
        <DataArray type="Int32" Name="processor_id" format="ascii" RangeMin="0" RangeMax="0">
          0 0 0 0 0 0
          0 0 0 0 0 0
          0 0 0 0 0 0
          0 0 0 0 0 0
          0 0 0 0 0 0
          0 0 0 0 0 0
          0 0 0 0 0 0
          0 0 0 0 0 0
          0 0 0 0 0 0
          0 0 0 0 0 0
          0 0 0 0
        </DataArray>
      </CellData>
      <Points>
        <DataArray type="Float64" Name="Points" NumberOfComponents="3" format="ascii" RangeMin="0" RangeMax="1.7320508075688772">
          0 0 0 0.25 0 0
          0.25 0.25 0 0 0.25 0
          0 0 0.25 0.25 0 0.25
          0.25 0.25 0.25 0 0.25 0.25
          0.5 0 0 0.5 0.25 0
          0.5 0 0.25 0.5 0.25 0.25
          0.75 0 0 0.75 0.25 0
          0.75 0 0.25 0.75 0.25 0.25
          1 0 0 1 0.25 0
          1 0 0.25 1 0.25 0.25
          0.25 0.5 0 0 0.5 0
          0.25 0.5 0.25 0 0.5 0.25
          0.5 0.5 0 0.5 0.5 0.25
          0.75 0.5 0 0.75 0.5 0.25
          1 0.5 0 1 0.5 0.25
          0.25 0.75 0 0 0.75 0
          0.25 0.75 0.25 0 0.75 0.25
          0.5 0.75 0 0.5 0.75 0.25
          0.75 0.75 0 0.75 0.75 0.25
          1 0.75 0 1 0.75 0.25
          0.25 1 0 0 1 0
          0.25 1 0.25 0 1 0.25
          0.5 1 0 0.5 1 0.25
          0.75 1 0 0.75 1 0.25
          1 1 0 1 1 0.25
          0 0 0.5 0.25 0 0.5
          0.25 0.25 0.5 0 0.25 0.5
          0.5 0 0.5 0.5 0.25 0.5
          0.75 0 0.5 0.75 0.25 0.5
          1 0 0.5 1 0.25 0.5
          0.25 0.5 0.5 0 0.5 0.5
          0.5 0.5 0.5 0.75 0.5 0.5
          1 0.5 0.5 0.25 0.75 0.5
          0 0.75 0.5 0.5 0.75 0.5
          0.75 0.75 0.5 1 0.75 0.5
          0.25 1 0.5 0 1 0.5
          0.5 1 0.5 0.75 1 0.5
          1 1 0.5 0 0 0.75
          0.25 0 0.75 0.25 0.25 0.75
          0 0.25 0.75 0.5 0 0.75
          0.5 0.25 0.75 0.75 0 0.75
          0.75 0.25 0.75 1 0 0.75
          1 0.25 0.75 0.25 0.5 0.75
          0 0.5 0.75 0.5 0.5 0.75
          0.75 0.5 0.75 1 0.5 0.75
          0.25 0.75 0.75 0 0.75 0.75
          0.5 0.75 0.75 0.75 0.75 0.75
          1 0.75 0.75 0.25 1 0.75
          0 1 0.75 0.5 1 0.75
          0.75 1 0.75 1 1 0.75
          0 0 1 0.25 0 1
          0.25 0.25 1 0 0.25 1
          0.5 0 1 0.5 0.25 1
          0.75 0 1 0.75 0.25 1
          1 0 1 1 0.25 1
          0.25 0.5 1 0 0.5 1
          0.5 0.5 1 0.75 0.5 1
          1 0.5 1 0.25 0.75 1
          0 0.75 1 0.5 0.75 1
          0.75 0.75 1 1 0.75 1
          0.25 1 1 0 1 1
          0.5 1 1 0.75 1 1
          1 1 1
          <InformationKey name="L2_NORM_RANGE" location="vtkDataArray" length="2">
            <Value index="0">
              0
            </Value>
            <Value index="1">
              1.7320508076
            </Value>
          </InformationKey>
        </DataArray>
      </Points>
      <Cells>
        <DataArray type="Int64" Name="connectivity" format="ascii" RangeMin="0" RangeMax="124">
          0 1 2 3 4 5
          6 7 1 8 9 2
          5 10 11 6 8 12
          13 9 10 14 15 11
          12 16 17 13 14 18
          19 15 3 2 20 21
          7 6 22 23 2 9
          24 20 6 11 25 22
          9 13 26 24 11 15
          27 25 13 17 28 26
          15 19 29 27 21 20
          30 31 23 22 32 33
          20 24 34 30 22 25
          35 32 24 26 36 34
          25 27 37 35 26 28
          38 36 27 29 39 37
          31 30 40 41 33 32
          42 43 30 34 44 40
          32 35 45 42 34 36
          46 44 35 37 47 45
          36 38 48 46 37 39
          49 47 4 5 6 7
          50 51 52 53 5 10
          11 6 51 54 55 52
          10 14 15 11 54 56
          57 55 14 18 19 15
          56 58 59 57 7 6
          22 23 53 52 60 61
          6 11 25 22 52 55
          62 60 11 15 27 25
          55 57 63 62 15 19
          29 27 57 59 64 63
          23 22 32 33 61 60
          65 66 22 25 35 32
          60 62 67 65 25 27
          37 35 62 63 68 67
          27 29 39 37 63 64
          69 68 33 32 42 43
          66 65 70 71 32 35
          45 42 65 67 72 70
          35 37 47 45 67 68
          73 72 37 39 49 47
          68 69 74 73 50 51
          52 53 75 76 77 78
          51 54 55 52 76 79
          80 77 54 56 57 55
          79 81 82 80 56 58
          59 57 81 83 84 82
          53 52 60 61 78 77
          85 86 52 55 62 60
          77 80 87 85 55 57
          63 62 80 82 88 87
          57 59 64 63 82 84
          89 88 61 60 65 66
          86 85 90 91 60 62
          67 65 85 87 92 90
          62 63 68 67 87 88
          93 92 63 64 69 68
          88 89 94 93 66 65
          70 71 91 90 95 96
          65 67 72 70 90 92
          97 95 67 68 73 72
          92 93 98 97 68 69
          74 73 93 94 99 98
          75 76 77 78 100 101
          102 103 76 79 80 77
          101 104 105 102 79 81
          82 80 104 106 107 105
          81 83 84 82 106 108
          109 107 78 77 85 86
          103 102 110 111 77 80
          87 85 102 105 112 110
          80 82 88 87 105 107
          113 112 82 84 89 88
          107 109 114 113 86 85
          90 91 111 110 115 116
          85 87 92 90 110 112
          117 115 87 88 93 92
          112 113 118 117 88 89
          94 93 113 114 119 118
          91 90 95 96 116 115
          120 121 90 92 97 95
          115 117 122 120 92 93
          98 97 117 118 123 122
          93 94 99 98 118 119
          124 123
        </DataArray>
        <DataArray type="Int64" Name="offsets" format="ascii" RangeMin="8" RangeMax="512">
          8 16 24 32 40 48
          56 64 72 80 88 96
          104 112 120 128 136 144
          152 160 168 176 184 192
          200 208 216 224 232 240
          248 256 264 272 280 288
          296 304 312 320 328 336
          344 352 360 368 376 384
          392 400 408 416 424 432
          440 448 456 464 472 480
          488 496 504 512
        </DataArray>
        <DataArray type="UInt8" Name="types" format="ascii" RangeMin="12" RangeMax="12">
          12 12 12 12 12 12
          12 12 12 12 12 12
          12 12 12 12 12 12
          12 12 12 12 12 12
          12 12 12 12 12 12
          12 12 12 12 12 12
          12 12 12 12 12 12
          12 12 12 12 12 12
          12 12 12 12 12 12
          12 12 12 12 12 12
          12 12 12 12
        </DataArray>
      </Cells>
    </Piece>
  </UnstructuredGrid>
</VTKFile>
