<?xml version="1.0"?>
<VTKFile type="UnstructuredGrid" version="0.1" byte_order="LittleEndian" header_type="UInt32" compressor="vtkZLibDataCompressor">
  <UnstructuredGrid>
    <Piece NumberOfPoints="125" NumberOfCells="64">
      <PointData>
        <DataArray type="Int32" Name="libmesh_node_id" format="ascii" RangeMin="0" RangeMax="124">
          0 1 2 3 4 5
          6 7 8 9 10 11
          12 13 14 15 16 17
          18 19 20 21 22 23
          24 25 26 27 28 29
          30 31 32 33 34 35
          36 37 38 39 40 41
          42 43 44 45 46 47
          48 49 50 51 52 53
          54 55 56 57 58 59
          60 61 62 63 64 65
          66 67 68 69 70 71
          72 73 74 75 76 77
          78 79 80 81 82 83
          84 85 86 87 88 89
          90 91 92 93 94 95
          96 97 98 99 100 101
          102 103 104 105 106 107
          108 109 110 111 112 113
          114 115 116 117 118 119
          120 121 122 123 124
        </DataArray>
        <DataArray type="Float64" Name="power_density" format="ascii" RangeMin="170.52920985739723" RangeMax="178.7298702741511">
          174.9893114223243 176.43099048786442 174.62744032708653 173.050053169333 172.8826491887578 173.46615264417096
          174.39730579417915 173.9737228072512 175.12922749388588 175.5527772607724 173.32660851454835 174.51839154345063
          173.86522549763973 175.70125989910943 173.46125063631783 174.57648627591652 175.34466556091223 176.50179276151414
          174.31894034312307 174.93707824603877 174.07700579573992 175.3710199161296 175.23595279988945 176.35885543421563
          175.3706427630304 174.9310570800886 176.1881903262395 175.19682777573402 174.41808680176848 174.6445915568541
          174.84318865203517 175.17988445130754 175.19310904247357 176.00195932726353 176.23904024327766 174.84859240278166
          175.85353858423392 174.770933205396 173.73548953467537 174.22894036291228 174.35625587889916 170.72852398669764
          175.2427714293555 174.35100421184032 177.71312198815338 175.54524521773902 176.86799081656798 174.83993277483916
          176.29372542792987 174.72391376107092 172.03246009984815 171.61208674180864 173.89799452488592 175.0651923146358
          171.5968935880203 172.69127856274883 172.99472858489605 173.56658140682327 173.98738337752064 174.48140242328486
          175.74983250195592 177.77354420890393 173.90095439705578 175.05222932854724 176.02867065799072 175.11613403167124
          177.04717107381953 173.1565261730479 173.99273051785357 174.85750567913425 174.91650536739377 176.6451782592546
          172.2968070894615 172.01943660736316 172.6330915113362 171.90907155095113 173.437555815861 173.8902850167931
          173.3834033401552 174.05048473096156 173.8941929456247 174.9203201665407 175.13137183332455 176.70571095192923
          176.87152446883064 175.16628273355315 175.49189222846218 174.2827881762233 175.49547876436557 177.26605441492865
          174.9487628320905 175.97117601537352 173.09767023037102 173.76584560302751 175.26270039412046 173.9079744147999
          175.81630270318192 171.3676652685833 171.8831571774322 173.03062994411565 170.52920985739723 174.15225294858226
          174.15175224508607 171.5338144962081 176.4311718210933 175.88983459188063 176.9084589382852 176.5812935057261
          178.7298702741511 178.15260782165498 175.22780026723345 172.78338699141818 175.25513895548184 175.09196409686524
          177.34586382581554 175.20828703375057 174.6720440863275 173.34043267693198 173.23455799690595 175.53278062112153
          174.11222507462412 176.31573332483765 171.51908480556824 172.53931587324837 173.94917895977085
        </DataArray>
        <DataArray type="Float64" Name="tempe_density" format="ascii" RangeMin="570.6043851330578" RangeMax="578.9302646964956">
          578.8901352015581 578.6653134276291 576.747498252272 574.529261236018 575.7427240408402 576.3286783415242
          575.5407444666712 574.7049358180673 575.0112887585265 576.9285463879248 576.2180998332408 575.7467084942316
          573.3789173965816 574.5794680101 574.7386837869826 575.0280631508011 575.1757489298104 574.2675785128758
          573.9558005496915 574.9392624284139 574.2475470286455 572.7033723217896 574.875471659996 573.9530312975711
          575.195047323021 575.3642265982669 573.2005415971464 574.0290513919022 571.8027102837525 573.1275616096915
          575.3207811619752 575.6672607215116 574.9595540121635 574.2630562413254 573.770079074345 575.7639513156571
          573.5155167327827 575.2515913263419 574.4651769193142 574.6313318043711 576.9761513435742 576.096164069922
          574.9209752961531 574.2871974828031 575.9958675199714 576.0747665900029 576.4099688948907 577.7625223834992
          578.6843413670648 578.9302646964956 574.7269711148969 575.7107510142388 575.3628829926917 574.7660134090845
          576.3779331649771 575.804293873913 574.5525714448851 574.7767766867536 573.0438074733966 573.9047182019799
          574.846541017953 573.3526156007897 576.447974911147 575.4536592725491 574.3518351579205 573.7381576114757
          572.1685937020967 575.9994847458361 575.6826231319861 574.6739982931545 572.7982481581896 572.437011905886
          574.3336742522272 575.4589096474962 575.4099552010309 573.7315072413646 574.0363120551731 574.452982636753
          574.0705080942539 574.2349155732093 575.5222148792346 573.9039064894503 574.8914395210804 573.6790987014635
          573.5739064629435 574.4090200546826 572.5569087166389 577.1832415431834 576.2022041978905 574.2990567021409
          574.7498768014148 573.1460753570415 576.184924789176 575.2677133511286 574.5192553696934 575.5513667117971
          575.5878422279484 574.8128806772452 574.0099908591865 573.9091115595284 570.6043851330578 570.6431653372878
          572.5141899691931 573.4895997704555 573.1388757244192 574.0007126111817 574.8011202665137 575.7059839601558
          574.0064346257067 574.9493228658789 574.628354364806 573.6112765050509 577.0039391375858 576.3546510373408
          574.3468560240709 576.6217652422301 574.8138150710288 578.128703643649 576.1578463581861 574.4880008425059
          578.3720363559469 578.7798915398089 577.1120785100704 576.2172382954884 576.174500742921
        </DataArray>
        <DataArray type="Float64" Name="temperature" format="ascii" RangeMin="200" RangeMax="200">
          200 200 200 200 200 200
          200 200 200 200 200 200
          200 200 200 200 200 200
          200 200 200 200 200 200
          200 200 200 200 200 200
          200 200 200 200 200 200
          200 200 200 200 200 200
          200 200 200 200 200 200
          200 200 200 200 200 200
          200 200 200 200 200 200
          200 200 200 200 200 200
          200 200 200 200 200 200
          200 200 200 200 200 200
          200 200 200 200 200 200
          200 200 200 200 200 200
          200 200 200 200 200 200
          200 200 200 200 200 200
          200 200 200 200 200 200
          200 200 200 200 200 200
          200 200 200 200 200 200
          200 200 200 200 200
        </DataArray>
        <DataArray type="Float64" Name="dummy" format="ascii" RangeMin="0" RangeMax="0">
          0 0 0 0 0 0
          0 0 0 0 0 0
          0 0 0 0 0 0
          0 0 0 0 0 0
          0 0 0 0 0 0
          0 0 0 0 0 0
          0 0 0 0 0 0
          0 0 0 0 0 0
          0 0 0 0 0 0
          0 0 0 0 0 0
          0 0 0 0 0 0
          0 0 0 0 0 0
          0 0 0 0 0 0
          0 0 0 0 0 0
          0 0 0 0 0 0
          0 0 0 0 0 0
          0 0 0 0 0 0
          0 0 0 0 0 0
          0 0 0 0 0 0
          0 0 0 0 0 0
          0 0 0 0 0
        </DataArray>
      </PointData>
      <CellData>
        <DataArray type="Int32" Name="libmesh_elem_id" format="ascii" RangeMin="0" RangeMax="63">
          0 1 2 3 4 5
          6 7 8 9 10 11
          12 13 14 15 16 17
          18 19 20 21 22 23
          24 25 26 27 28 29
          30 31 32 33 34 35
          36 37 38 39 40 41
          42 43 44 45 46 47
          48 49 50 51 52 53
          54 55 56 57 58 59
          60 61 62 63
        </DataArray>
        <DataArray type="Int32" Name="subdomain_id" format="ascii" RangeMin="0" RangeMax="0">
          0 0 0 0 0 0
          0 0 0 0 0 0
          0 0 0 0 0 0
          0 0 0 0 0 0
          0 0 0 0 0 0
          0 0 0 0 0 0
          0 0 0 0 0 0
          0 0 0 0 0 0
          0 0 0 0 0 0
          0 0 0 0 0 0
          0 0 0 0
        </DataArray>
        <DataArray type="Int32" Name="processor_id" format="ascii" RangeMin="0" RangeMax="0">
          0 0 0 0 0 0
          0 0 0 0 0 0
          0 0 0 0 0 0
          0 0 0 0 0 0
          0 0 0 0 0 0
          0 0 0 0 0 0
          0 0 0 0 0 0
          0 0 0 0 0 0
          0 0 0 0 0 0
          0 0 0 0 0 0
          0 0 0 0
        </DataArray>
      </CellData>
      <Points>
        <DataArray type="Float64" Name="Points" NumberOfComponents="3" format="ascii" RangeMin="0" RangeMax="1.7320508075688772">
          0 0 0 0.25 0 0
          0.25 0.25 0 0 0.25 0
          0 0 0.25 0.25 0 0.25
          0.25 0.25 0.25 0 0.25 0.25
          0.5 0 0 0.5 0.25 0
          0.5 0 0.25 0.5 0.25 0.25
          0.75 0 0 0.75 0.25 0
          0.75 0 0.25 0.75 0.25 0.25
          1 0 0 1 0.25 0
          1 0 0.25 1 0.25 0.25
          0.25 0.5 0 0 0.5 0
          0.25 0.5 0.25 0 0.5 0.25
          0.5 0.5 0 0.5 0.5 0.25
          0.75 0.5 0 0.75 0.5 0.25
          1 0.5 0 1 0.5 0.25
          0.25 0.75 0 0 0.75 0
          0.25 0.75 0.25 0 0.75 0.25
          0.5 0.75 0 0.5 0.75 0.25
          0.75 0.75 0 0.75 0.75 0.25
          1 0.75 0 1 0.75 0.25
          0.25 1 0 0 1 0
          0.25 1 0.25 0 1 0.25
          0.5 1 0 0.5 1 0.25
          0.75 1 0 0.75 1 0.25
          1 1 0 1 1 0.25
          0 0 0.5 0.25 0 0.5
          0.25 0.25 0.5 0 0.25 0.5
          0.5 0 0.5 0.5 0.25 0.5
          0.75 0 0.5 0.75 0.25 0.5
          1 0 0.5 1 0.25 0.5
          0.25 0.5 0.5 0 0.5 0.5
          0.5 0.5 0.5 0.75 0.5 0.5
          1 0.5 0.5 0.25 0.75 0.5
          0 0.75 0.5 0.5 0.75 0.5
          0.75 0.75 0.5 1 0.75 0.5
          0.25 1 0.5 0 1 0.5
          0.5 1 0.5 0.75 1 0.5
          1 1 0.5 0 0 0.75
          0.25 0 0.75 0.25 0.25 0.75
          0 0.25 0.75 0.5 0 0.75
          0.5 0.25 0.75 0.75 0 0.75
          0.75 0.25 0.75 1 0 0.75
          1 0.25 0.75 0.25 0.5 0.75
          0 0.5 0.75 0.5 0.5 0.75
          0.75 0.5 0.75 1 0.5 0.75
          0.25 0.75 0.75 0 0.75 0.75
          0.5 0.75 0.75 0.75 0.75 0.75
          1 0.75 0.75 0.25 1 0.75
          0 1 0.75 0.5 1 0.75
          0.75 1 0.75 1 1 0.75
          0 0 1 0.25 0 1
          0.25 0.25 1 0 0.25 1
          0.5 0 1 0.5 0.25 1
          0.75 0 1 0.75 0.25 1
          1 0 1 1 0.25 1
          0.25 0.5 1 0 0.5 1
          0.5 0.5 1 0.75 0.5 1
          1 0.5 1 0.25 0.75 1
          0 0.75 1 0.5 0.75 1
          0.75 0.75 1 1 0.75 1
          0.25 1 1 0 1 1
          0.5 1 1 0.75 1 1
          1 1 1
          <InformationKey name="L2_NORM_RANGE" location="vtkDataArray" length="2">
            <Value index="0">
              0
            </Value>
            <Value index="1">
              1.7320508076
            </Value>
          </InformationKey>
        </DataArray>
      </Points>
      <Cells>
        <DataArray type="Int64" Name="connectivity" format="ascii" RangeMin="0" RangeMax="124">
          0 1 2 3 4 5
          6 7 1 8 9 2
          5 10 11 6 8 12
          13 9 10 14 15 11
          12 16 17 13 14 18
          19 15 3 2 20 21
          7 6 22 23 2 9
          24 20 6 11 25 22
          9 13 26 24 11 15
          27 25 13 17 28 26
          15 19 29 27 21 20
          30 31 23 22 32 33
          20 24 34 30 22 25
          35 32 24 26 36 34
          25 27 37 35 26 28
          38 36 27 29 39 37
          31 30 40 41 33 32
          42 43 30 34 44 40
          32 35 45 42 34 36
          46 44 35 37 47 45
          36 38 48 46 37 39
          49 47 4 5 6 7
          50 51 52 53 5 10
          11 6 51 54 55 52
          10 14 15 11 54 56
          57 55 14 18 19 15
          56 58 59 57 7 6
          22 23 53 52 60 61
          6 11 25 22 52 55
          62 60 11 15 27 25
          55 57 63 62 15 19
          29 27 57 59 64 63
          23 22 32 33 61 60
          65 66 22 25 35 32
          60 62 67 65 25 27
          37 35 62 63 68 67
          27 29 39 37 63 64
          69 68 33 32 42 43
          66 65 70 71 32 35
          45 42 65 67 72 70
          35 37 47 45 67 68
          73 72 37 39 49 47
          68 69 74 73 50 51
          52 53 75 76 77 78
          51 54 55 52 76 79
          80 77 54 56 57 55
          79 81 82 80 56 58
          59 57 81 83 84 82
          53 52 60 61 78 77
          85 86 52 55 62 60
          77 80 87 85 55 57
          63 62 80 82 88 87
          57 59 64 63 82 84
          89 88 61 60 65 66
          86 85 90 91 60 62
          67 65 85 87 92 90
          62 63 68 67 87 88
          93 92 63 64 69 68
          88 89 94 93 66 65
          70 71 91 90 95 96
          65 67 72 70 90 92
          97 95 67 68 73 72
          92 93 98 97 68 69
          74 73 93 94 99 98
          75 76 77 78 100 101
          102 103 76 79 80 77
          101 104 105 102 79 81
          82 80 104 106 107 105
          81 83 84 82 106 108
          109 107 78 77 85 86
          103 102 110 111 77 80
          87 85 102 105 112 110
          80 82 88 87 105 107
          113 112 82 84 89 88
          107 109 114 113 86 85
          90 91 111 110 115 116
          85 87 92 90 110 112
          117 115 87 88 93 92
          112 113 118 117 88 89
          94 93 113 114 119 118
          91 90 95 96 116 115
          120 121 90 92 97 95
          115 117 122 120 92 93
          98 97 117 118 123 122
          93 94 99 98 118 119
          124 123
        </DataArray>
        <DataArray type="Int64" Name="offsets" format="ascii" RangeMin="8" RangeMax="512">
          8 16 24 32 40 48
          56 64 72 80 88 96
          104 112 120 128 136 144
          152 160 168 176 184 192
          200 208 216 224 232 240
          248 256 264 272 280 288
          296 304 312 320 328 336
          344 352 360 368 376 384
          392 400 408 416 424 432
          440 448 456 464 472 480
          488 496 504 512
        </DataArray>
        <DataArray type="UInt8" Name="types" format="ascii" RangeMin="12" RangeMax="12">
          12 12 12 12 12 12
          12 12 12 12 12 12
          12 12 12 12 12 12
          12 12 12 12 12 12
          12 12 12 12 12 12
          12 12 12 12 12 12
          12 12 12 12 12 12
          12 12 12 12 12 12
          12 12 12 12 12 12
          12 12 12 12 12 12
          12 12 12 12
        </DataArray>
      </Cells>
    </Piece>
  </UnstructuredGrid>
</VTKFile>
