<?xml version="1.0"?>
<VTKFile type="UnstructuredGrid" version="0.1" byte_order="LittleEndian" header_type="UInt32" compressor="vtkZLibDataCompressor">
  <UnstructuredGrid>
    <Piece NumberOfPoints="16" NumberOfCells="3">
      <PointData>
        <DataArray type="Int32" Name="libmesh_node_id" format="ascii" RangeMin="82" RangeMax="115">
          82 85 87 102 105 107
          108 110 111 90 88 91
          95 94 115 114
        </DataArray>
        <DataArray type="Float64" Name="power_density" format="ascii" RangeMin="0" RangeMax="0">
          0 0 0 0 0 0
          0 0 0 0 0 0
          0 0 0 0
        </DataArray>
        <DataArray type="Float64" Name="tempe_density" format="ascii" RangeMin="0" RangeMax="0">
          0 0 0 0 0 0
          0 0 0 0 0 0
          0 0 0 0
        </DataArray>
        <DataArray type="Float64" Name="temperature" format="ascii" RangeMin="0" RangeMax="0">
          0 0 0 0 0 0
          0 0 0 0 0 0
          0 0 0 0
        </DataArray>
        <DataArray type="Float64" Name="dummy" format="ascii" RangeMin="0" RangeMax="0">
          0 0 0 0 0 0
          0 0 0 0 0 0
          0 0 0 0
        </DataArray>
      </PointData>
      <CellData>
        <DataArray type="Int32" Name="libmesh_elem_id" format="ascii" RangeMin="52" RangeMax="56">
          52 53 56
        </DataArray>
        <DataArray type="Int32" Name="subdomain_id" format="ascii" RangeMin="0" RangeMax="0">
          0 0 0
        </DataArray>
        <DataArray type="Int32" Name="processor_id" format="ascii" RangeMin="5" RangeMax="5">
          5 5 5
        </DataArray>
      </CellData>
      <Points>
        <DataArray type="Float64" Name="Points" NumberOfComponents="3" format="ascii" RangeMin="4.242640687119285" RangeMax="6.557438524302">
          1 1 4 2 1 4
          3 1 4 1 1 5
          2 1 5 3 1 5
          1 2 5 2 2 5
          3 2 5 2 2 4
          1 2 4 3 2 4
          3 3 4 2 3 4
          3 3 5 2 3 5
          <InformationKey name="L2_NORM_RANGE" location="vtkDataArray" length="2">
            <Value index="0">
              4.2426406871
            </Value>
            <Value index="1">
              6.5574385243
            </Value>
          </InformationKey>
        </DataArray>
      </Points>
      <Cells>
        <DataArray type="Int64" Name="connectivity" format="ascii" RangeMin="0" RangeMax="15">
          0 1 9 10 3 4
          7 6 1 2 11 9
          4 5 8 7 9 11
          12 13 7 8 14 15
        </DataArray>
        <DataArray type="Int64" Name="offsets" format="ascii" RangeMin="8" RangeMax="24">
          8 16 24
        </DataArray>
        <DataArray type="UInt8" Name="types" format="ascii" RangeMin="12" RangeMax="12">
          12 12 12
        </DataArray>
      </Cells>
    </Piece>
  </UnstructuredGrid>
</VTKFile>
