<?xml version="1.0"?>
<VTKFile type="UnstructuredGrid" version="0.1" byte_order="LittleEndian" header_type="UInt32" compressor="vtkZLibDataCompressor">
  <UnstructuredGrid>
    <Piece NumberOfPoints="16" NumberOfCells="3">
      <PointData>
        <DataArray type="Int32" Name="libmesh_node_id" format="ascii" RangeMin="61" RangeMax="90">
          61 64 65 62 81 84
          85 82 63 68 69 83
          88 89 70 90
        </DataArray>
        <DataArray type="Float64" Name="power_density" format="ascii" RangeMin="5123.75" RangeMax="11618.75">
          11362.5 11362.5 11493.75 11618.75 7367.5 6870
          6495 7492.5 11367.5 6245 6117.5 7865
          6368.75 6865 6125 5123.75
        </DataArray>
        <DataArray type="Float64" Name="tempe_density" format="ascii" RangeMin="5523.75" RangeMax="12018.75">
          11762.5 11762.5 11893.75 12018.75 7767.5 7270
          6895 7892.5 11767.5 6645 6517.5 8265
          6768.75 7265 6525 5523.75
        </DataArray>
        <DataArray type="Float64" Name="temperature" format="ascii" RangeMin="0" RangeMax="0">
          0 0 0 0 0 0
          0 0 0 0 0 0
          0 0 0 0
        </DataArray>
        <DataArray type="Float64" Name="dummy" format="ascii" RangeMin="0" RangeMax="0">
          0 0 0 0 0 0
          0 0 0 0 0 0
          0 0 0 0
        </DataArray>
      </PointData>
      <CellData>
        <DataArray type="Int32" Name="libmesh_elem_id" format="ascii" RangeMin="37" RangeMax="40">
          37 39 40
        </DataArray>
        <DataArray type="Int32" Name="subdomain_id" format="ascii" RangeMin="0" RangeMax="0">
          0 0 0
        </DataArray>
        <DataArray type="Int32" Name="processor_id" format="ascii" RangeMin="8" RangeMax="8">
          8 8 8
        </DataArray>
      </CellData>
      <Points>
        <DataArray type="Float64" Name="Points" NumberOfComponents="3" format="ascii" RangeMin="3.1622776601683795" RangeMax="4.898979485566356">
          1 0 3 2 0 3
          2 1 3 1 1 3
          1 0 4 2 0 4
          2 1 4 1 1 4
          0 1 3 1 2 3
          0 2 3 0 1 4
          1 2 4 0 2 4
          2 2 3 2 2 4
          <InformationKey name="L2_NORM_RANGE" location="vtkDataArray" length="2">
            <Value index="0">
              3.1622776602
            </Value>
            <Value index="1">
              4.8989794856
            </Value>
          </InformationKey>
        </DataArray>
      </Points>
      <Cells>
        <DataArray type="Int64" Name="connectivity" format="ascii" RangeMin="0" RangeMax="15">
          0 1 2 3 4 5
          6 7 8 3 9 10
          11 7 12 13 3 2
          14 9 7 6 15 12
        </DataArray>
        <DataArray type="Int64" Name="offsets" format="ascii" RangeMin="8" RangeMax="24">
          8 16 24
        </DataArray>
        <DataArray type="UInt8" Name="types" format="ascii" RangeMin="12" RangeMax="12">
          12 12 12
        </DataArray>
      </Cells>
    </Piece>
  </UnstructuredGrid>
</VTKFile>
