<?xml version="1.0"?>
<VTKFile type="UnstructuredGrid" version="0.1" byte_order="LittleEndian" header_type="UInt32" compressor="vtkZLibDataCompressor">
  <UnstructuredGrid>
    <Piece NumberOfPoints="16" NumberOfCells="3">
      <PointData>
        <DataArray type="Int32" Name="libmesh_node_id" format="ascii" RangeMin="64" RangeMax="107">
          64 65 66 67 84 86
          104 106 87 85 71 70
          91 90 107 105
        </DataArray>
        <DataArray type="Float64" Name="power_density" format="ascii" RangeMin="4375" RangeMax="11493.75">
          11362.5 11493.75 11110 11117.5 6870 6120
          6630 6130 5870 6495 5877.5 6125
          4375 5123.75 5625 5872.5
        </DataArray>
        <DataArray type="Float64" Name="tempe_density" format="ascii" RangeMin="4775" RangeMax="11893.75">
          11762.5 11893.75 11510 11517.5 7270 6520
          7030 6530 6270 6895 6277.5 6525
          4775 5523.75 6025 6272.5
        </DataArray>
        <DataArray type="Float64" Name="temperature" format="ascii" RangeMin="0" RangeMax="0">
          0 0 0 0 0 0
          0 0 0 0 0 0
          0 0 0 0
        </DataArray>
        <DataArray type="Float64" Name="dummy" format="ascii" RangeMin="0" RangeMax="0">
          0 0 0 0 0 0
          0 0 0 0 0 0
          0 0 0 0
        </DataArray>
      </PointData>
      <CellData>
        <DataArray type="Int32" Name="libmesh_elem_id" format="ascii" RangeMin="38" RangeMax="50">
          38 41 50
        </DataArray>
        <DataArray type="Int32" Name="subdomain_id" format="ascii" RangeMin="0" RangeMax="0">
          0 0 0
        </DataArray>
        <DataArray type="Int32" Name="processor_id" format="ascii" RangeMin="6" RangeMax="6">
          6 6 6
        </DataArray>
      </CellData>
      <Points>
        <DataArray type="Float64" Name="Points" NumberOfComponents="3" format="ascii" RangeMin="3.605551275463989" RangeMax="5.916079783099616">
          2 0 3 2 1 3
          3 0 3 3 1 3
          2 0 4 3 0 4
          2 0 5 3 0 5
          3 1 4 2 1 4
          3 2 3 2 2 3
          3 2 4 2 2 4
          3 1 5 2 1 5
          <InformationKey name="L2_NORM_RANGE" location="vtkDataArray" length="2">
            <Value index="0">
              3.6055512755
            </Value>
            <Value index="1">
              5.9160797831
            </Value>
          </InformationKey>
        </DataArray>
      </Points>
      <Cells>
        <DataArray type="Int64" Name="connectivity" format="ascii" RangeMin="0" RangeMax="15">
          0 2 3 1 4 5
          8 9 1 3 10 11
          9 8 12 13 4 5
          8 9 6 7 14 15
        </DataArray>
        <DataArray type="Int64" Name="offsets" format="ascii" RangeMin="8" RangeMax="24">
          8 16 24
        </DataArray>
        <DataArray type="UInt8" Name="types" format="ascii" RangeMin="12" RangeMax="12">
          12 12 12
        </DataArray>
      </Cells>
    </Piece>
  </UnstructuredGrid>
</VTKFile>
