<?xml version="1.0"?>
<VTKFile type="UnstructuredGrid" version="0.1" byte_order="LittleEndian" header_type="UInt32" compressor="vtkZLibDataCompressor">
  <UnstructuredGrid>
    <Piece NumberOfPoints="125" NumberOfCells="64">
      <PointData>
        <DataArray type="Int32" Name="libmesh_node_id" format="ascii" RangeMin="0" RangeMax="124">
          0 1 2 3 4 5
          6 7 8 9 10 11
          12 13 14 15 16 17
          18 19 20 21 22 23
          24 25 26 27 28 29
          30 31 32 33 34 35
          36 37 38 39 40 41
          42 43 44 45 46 47
          48 49 50 51 52 53
          54 55 56 57 58 59
          60 61 62 63 64 65
          66 67 68 69 70 71
          72 73 74 75 76 77
          78 79 80 81 82 83
          84 85 86 87 88 89
          90 91 92 93 94 95
          96 97 98 99 100 101
          102 103 104 105 106 107
          108 109 110 111 112 113
          114 115 116 117 118 119
          120 121 122 123 124
        </DataArray>
        <DataArray type="Float64" Name="power_density" format="ascii" RangeMin="130.28098039717057" RangeMax="138.8106497376122">
          133.51836035829717 133.78482381112752 133.5395926498711 132.53424367930435 135.85214302837937 134.5667355337274
          134.43684180092947 135.12764676548233 132.49486557515655 133.59046559678865 132.19266442215962 133.70639221784276
          130.79489005925987 133.22412015768114 130.83406059467342 133.08723736331703 130.6513362321645 133.8122507422228
          130.564120384103 132.50772712732515 133.22317492758546 132.10409204279418 133.43596835637507 133.5614610319623
          135.09150392089606 134.37952348580956 134.73514934005445 133.99333117531953 133.6295486506935 132.5380910598078
          134.00070002646 132.02912449886853 134.27560312422017 133.4206047769624 137.15379598049176 135.42687440681698
          135.3322383635022 133.68046956983 132.32916032007233 131.63779179750395 134.8494116863638 131.40019191246023
          135.98621760382176 134.12143799258547 138.8106497376122 137.31482185554077 136.84752830299792 134.71469092098152
          134.37238859103877 132.6507353459396 136.95648548136705 136.46716412513777 135.8422019106753 135.5539961734947
          133.88805644743536 135.1987953796427 132.05289060008056 133.4059818755666 132.30751107419889 132.54478063970365
          133.6121795406874 133.3405655474286 134.34520623407545 133.42970416555488 132.0527893969051 134.0236022631262
          135.39902595081907 133.50502092628696 133.39891245343523 132.43596162972983 136.04008514109043 138.26842767240328
          134.82916369627307 134.69748972681322 133.54839467085793 135.13300760397425 135.44491287035876 135.19513832663822
          133.06298358624034 135.17655746190502 136.4923962028803 133.40292289591508 134.00200208973382 132.2095490047634
          132.34650484074322 134.36655574172835 132.14879852128405 136.30078472776862 134.45286946204183 132.88848243071914
          134.07559315836204 134.74097052147368 134.80709240791407 135.44358195723166 134.68319489388557 134.36343861618502
          136.17730356888566 134.82085030414646 136.58250627393224 136.07288560305597 134.53896994367602 133.30414474676928
          134.03996378391366 132.73902467715152 134.46746529810204 136.409520485372 133.57329572175604 134.14239499728743
          130.28098039717057 130.80665191450663 135.1575141872466 132.63529596884126 137.5787000381094 135.29784360355853
          133.11801953655015 134.65448801245202 133.4959741963655 136.30409579639647 136.11803978375073 135.44088980324707
          133.7697304714689 132.66043586567548 135.8023671892161 136.3518866332032 135.97806396523652
        </DataArray>
        <DataArray type="Float64" Name="tempe_density" format="ascii" RangeMin="531.5714357375418" RangeMax="539.573673248747">
          539.573673248747 535.9290150654067 535.9938797645523 535.9996269298581 536.0476040267613 534.5390509313754
          535.781442449004 535.2185717642951 534.8878273822563 536.8853270828112 534.0382699435916 536.297077287143
          536.6631777110188 535.9590257573318 536.1905875850688 536.3039140366122 535.8350575395912 534.1355299482876
          537.3351331189439 536.3579866326511 535.6028769453786 532.7133965708606 535.961903105986 534.8927020126046
          536.6286119071881 536.3473653688021 534.7794743889119 535.3977728135903 534.7940822833442 535.1319190889437
          536.531123462132 535.2884868709175 535.9913112760656 535.4925424383198 534.8791711232515 534.9682829983344
          533.2421603407893 534.2382349537926 534.499738488422 535.0299840247278 537.9152374972048 537.5757612110829
          537.0826503067918 535.5892203532594 535.3839452154928 535.797719889759 532.1802457073993 534.0981647685601
          531.8473147671398 535.1769700179262 535.9344499077242 535.6505145762288 535.0327647261612 534.9410411341685
          535.5113081039788 535.0993147710552 536.8195026994566 535.6061610525412 537.982968435689 536.1381808811259
          535.5880422182204 536.3252469289944 535.4838983496453 534.837833041546 533.5587068912477 536.6087413738927
          537.6788296043687 535.891349196337 535.2024365946919 534.1608279401262 536.4564131874383 536.6547977113613
          535.5022231315153 535.1220265119176 535.4976354243199 538.5663793999712 538.4250217406618 534.7628173799981
          535.2530282289545 537.3756835413885 534.5549757951478 535.832398674798 534.6029009123207 535.1970943481714
          534.3684567653875 534.0983767378602 533.727586128469 535.2104036138969 534.4075955934303 532.8635513063184
          536.6427981189418 537.3848014244668 536.9884904749658 535.1213085824477 532.1664310283804 536.1894557814974
          539.2541076499331 535.2904417710452 534.8008291278782 532.1455786267275 537.7853937892694 538.69810112621
          535.0291104411294 535.0614907883041 536.9174633797463 534.6201495396601 533.7437894098018 534.6422820354517
          533.2634605232613 535.0409950855376 533.3415983058735 531.8766858532979 535.5191293589194 535.1555963420373
          534.0794447246849 535.5196125800975 535.1085416459182 537.2516774306748 535.0720535423075 531.5714357375418
          535.716148304497 538.8012993725795 535.7879318430851 535.3736890616417 531.8025116735278
        </DataArray>
        <DataArray type="Float64" Name="temperature" format="ascii" RangeMin="200" RangeMax="200">
          200 200 200 200 200 200
          200 200 200 200 200 200
          200 200 200 200 200 200
          200 200 200 200 200 200
          200 200 200 200 200 200
          200 200 200 200 200 200
          200 200 200 200 200 200
          200 200 200 200 200 200
          200 200 200 200 200 200
          200 200 200 200 200 200
          200 200 200 200 200 200
          200 200 200 200 200 200
          200 200 200 200 200 200
          200 200 200 200 200 200
          200 200 200 200 200 200
          200 200 200 200 200 200
          200 200 200 200 200 200
          200 200 200 200 200 200
          200 200 200 200 200 200
          200 200 200 200 200 200
          200 200 200 200 200
        </DataArray>
        <DataArray type="Float64" Name="dummy" format="ascii" RangeMin="0" RangeMax="0">
          0 0 0 0 0 0
          0 0 0 0 0 0
          0 0 0 0 0 0
          0 0 0 0 0 0
          0 0 0 0 0 0
          0 0 0 0 0 0
          0 0 0 0 0 0
          0 0 0 0 0 0
          0 0 0 0 0 0
          0 0 0 0 0 0
          0 0 0 0 0 0
          0 0 0 0 0 0
          0 0 0 0 0 0
          0 0 0 0 0 0
          0 0 0 0 0 0
          0 0 0 0 0 0
          0 0 0 0 0 0
          0 0 0 0 0 0
          0 0 0 0 0 0
          0 0 0 0 0 0
          0 0 0 0 0
        </DataArray>
      </PointData>
      <CellData>
        <DataArray type="Int32" Name="libmesh_elem_id" format="ascii" RangeMin="0" RangeMax="63">
          0 1 2 3 4 5
          6 7 8 9 10 11
          12 13 14 15 16 17
          18 19 20 21 22 23
          24 25 26 27 28 29
          30 31 32 33 34 35
          36 37 38 39 40 41
          42 43 44 45 46 47
          48 49 50 51 52 53
          54 55 56 57 58 59
          60 61 62 63
        </DataArray>
        <DataArray type="Int32" Name="subdomain_id" format="ascii" RangeMin="0" RangeMax="0">
          0 0 0 0 0 0
          0 0 0 0 0 0
          0 0 0 0 0 0
          0 0 0 0 0 0
          0 0 0 0 0 0
          0 0 0 0 0 0
          0 0 0 0 0 0
          0 0 0 0 0 0
          0 0 0 0 0 0
          0 0 0 0 0 0
          0 0 0 0
        </DataArray>
        <DataArray type="Int32" Name="processor_id" format="ascii" RangeMin="0" RangeMax="0">
          0 0 0 0 0 0
          0 0 0 0 0 0
          0 0 0 0 0 0
          0 0 0 0 0 0
          0 0 0 0 0 0
          0 0 0 0 0 0
          0 0 0 0 0 0
          0 0 0 0 0 0
          0 0 0 0 0 0
          0 0 0 0 0 0
          0 0 0 0
        </DataArray>
      </CellData>
      <Points>
        <DataArray type="Float64" Name="Points" NumberOfComponents="3" format="ascii" RangeMin="0" RangeMax="1.7320508075688772">
          0 0 0 0.25 0 0
          0.25 0.25 0 0 0.25 0
          0 0 0.25 0.25 0 0.25
          0.25 0.25 0.25 0 0.25 0.25
          0.5 0 0 0.5 0.25 0
          0.5 0 0.25 0.5 0.25 0.25
          0.75 0 0 0.75 0.25 0
          0.75 0 0.25 0.75 0.25 0.25
          1 0 0 1 0.25 0
          1 0 0.25 1 0.25 0.25
          0.25 0.5 0 0 0.5 0
          0.25 0.5 0.25 0 0.5 0.25
          0.5 0.5 0 0.5 0.5 0.25
          0.75 0.5 0 0.75 0.5 0.25
          1 0.5 0 1 0.5 0.25
          0.25 0.75 0 0 0.75 0
          0.25 0.75 0.25 0 0.75 0.25
          0.5 0.75 0 0.5 0.75 0.25
          0.75 0.75 0 0.75 0.75 0.25
          1 0.75 0 1 0.75 0.25
          0.25 1 0 0 1 0
          0.25 1 0.25 0 1 0.25
          0.5 1 0 0.5 1 0.25
          0.75 1 0 0.75 1 0.25
          1 1 0 1 1 0.25
          0 0 0.5 0.25 0 0.5
          0.25 0.25 0.5 0 0.25 0.5
          0.5 0 0.5 0.5 0.25 0.5
          0.75 0 0.5 0.75 0.25 0.5
          1 0 0.5 1 0.25 0.5
          0.25 0.5 0.5 0 0.5 0.5
          0.5 0.5 0.5 0.75 0.5 0.5
          1 0.5 0.5 0.25 0.75 0.5
          0 0.75 0.5 0.5 0.75 0.5
          0.75 0.75 0.5 1 0.75 0.5
          0.25 1 0.5 0 1 0.5
          0.5 1 0.5 0.75 1 0.5
          1 1 0.5 0 0 0.75
          0.25 0 0.75 0.25 0.25 0.75
          0 0.25 0.75 0.5 0 0.75
          0.5 0.25 0.75 0.75 0 0.75
          0.75 0.25 0.75 1 0 0.75
          1 0.25 0.75 0.25 0.5 0.75
          0 0.5 0.75 0.5 0.5 0.75
          0.75 0.5 0.75 1 0.5 0.75
          0.25 0.75 0.75 0 0.75 0.75
          0.5 0.75 0.75 0.75 0.75 0.75
          1 0.75 0.75 0.25 1 0.75
          0 1 0.75 0.5 1 0.75
          0.75 1 0.75 1 1 0.75
          0 0 1 0.25 0 1
          0.25 0.25 1 0 0.25 1
          0.5 0 1 0.5 0.25 1
          0.75 0 1 0.75 0.25 1
          1 0 1 1 0.25 1
          0.25 0.5 1 0 0.5 1
          0.5 0.5 1 0.75 0.5 1
          1 0.5 1 0.25 0.75 1
          0 0.75 1 0.5 0.75 1
          0.75 0.75 1 1 0.75 1
          0.25 1 1 0 1 1
          0.5 1 1 0.75 1 1
          1 1 1
          <InformationKey name="L2_NORM_RANGE" location="vtkDataArray" length="2">
            <Value index="0">
              0
            </Value>
            <Value index="1">
              1.7320508076
            </Value>
          </InformationKey>
        </DataArray>
      </Points>
      <Cells>
        <DataArray type="Int64" Name="connectivity" format="ascii" RangeMin="0" RangeMax="124">
          0 1 2 3 4 5
          6 7 1 8 9 2
          5 10 11 6 8 12
          13 9 10 14 15 11
          12 16 17 13 14 18
          19 15 3 2 20 21
          7 6 22 23 2 9
          24 20 6 11 25 22
          9 13 26 24 11 15
          27 25 13 17 28 26
          15 19 29 27 21 20
          30 31 23 22 32 33
          20 24 34 30 22 25
          35 32 24 26 36 34
          25 27 37 35 26 28
          38 36 27 29 39 37
          31 30 40 41 33 32
          42 43 30 34 44 40
          32 35 45 42 34 36
          46 44 35 37 47 45
          36 38 48 46 37 39
          49 47 4 5 6 7
          50 51 52 53 5 10
          11 6 51 54 55 52
          10 14 15 11 54 56
          57 55 14 18 19 15
          56 58 59 57 7 6
          22 23 53 52 60 61
          6 11 25 22 52 55
          62 60 11 15 27 25
          55 57 63 62 15 19
          29 27 57 59 64 63
          23 22 32 33 61 60
          65 66 22 25 35 32
          60 62 67 65 25 27
          37 35 62 63 68 67
          27 29 39 37 63 64
          69 68 33 32 42 43
          66 65 70 71 32 35
          45 42 65 67 72 70
          35 37 47 45 67 68
          73 72 37 39 49 47
          68 69 74 73 50 51
          52 53 75 76 77 78
          51 54 55 52 76 79
          80 77 54 56 57 55
          79 81 82 80 56 58
          59 57 81 83 84 82
          53 52 60 61 78 77
          85 86 52 55 62 60
          77 80 87 85 55 57
          63 62 80 82 88 87
          57 59 64 63 82 84
          89 88 61 60 65 66
          86 85 90 91 60 62
          67 65 85 87 92 90
          62 63 68 67 87 88
          93 92 63 64 69 68
          88 89 94 93 66 65
          70 71 91 90 95 96
          65 67 72 70 90 92
          97 95 67 68 73 72
          92 93 98 97 68 69
          74 73 93 94 99 98
          75 76 77 78 100 101
          102 103 76 79 80 77
          101 104 105 102 79 81
          82 80 104 106 107 105
          81 83 84 82 106 108
          109 107 78 77 85 86
          103 102 110 111 77 80
          87 85 102 105 112 110
          80 82 88 87 105 107
          113 112 82 84 89 88
          107 109 114 113 86 85
          90 91 111 110 115 116
          85 87 92 90 110 112
          117 115 87 88 93 92
          112 113 118 117 88 89
          94 93 113 114 119 118
          91 90 95 96 116 115
          120 121 90 92 97 95
          115 117 122 120 92 93
          98 97 117 118 123 122
          93 94 99 98 118 119
          124 123
        </DataArray>
        <DataArray type="Int64" Name="offsets" format="ascii" RangeMin="8" RangeMax="512">
          8 16 24 32 40 48
          56 64 72 80 88 96
          104 112 120 128 136 144
          152 160 168 176 184 192
          200 208 216 224 232 240
          248 256 264 272 280 288
          296 304 312 320 328 336
          344 352 360 368 376 384
          392 400 408 416 424 432
          440 448 456 464 472 480
          488 496 504 512
        </DataArray>
        <DataArray type="UInt8" Name="types" format="ascii" RangeMin="12" RangeMax="12">
          12 12 12 12 12 12
          12 12 12 12 12 12
          12 12 12 12 12 12
          12 12 12 12 12 12
          12 12 12 12 12 12
          12 12 12 12 12 12
          12 12 12 12 12 12
          12 12 12 12 12 12
          12 12 12 12 12 12
          12 12 12 12 12 12
          12 12 12 12
        </DataArray>
      </Cells>
    </Piece>
  </UnstructuredGrid>
</VTKFile>
