<?xml version="1.0"?>
<VTKFile type="UnstructuredGrid" version="0.1" byte_order="LittleEndian" header_type="UInt32" compressor="vtkZLibDataCompressor">
  <UnstructuredGrid>
    <Piece NumberOfPoints="40" NumberOfCells="12">
      <PointData>
        <DataArray type="Int32" Name="libmesh_node_id" format="ascii" RangeMin="42" RangeMax="117">
          68 69 72 73 76 77
          88 89 92 93 96 97
          108 109 112 113 116 117
          43 42 48 49 63 62
          45 50 65 70 52 53
          56 57 83 82 85 90
          103 102 105 110
        </DataArray>
        <DataArray type="Float64" Name="power_density" format="ascii" RangeMin="0" RangeMax="0">
          0 0 0 0 0 0
          0 0 0 0 0 0
          0 0 0 0 0 0
          0 0 0 0 0 0
          0 0 0 0 0 0
          0 0 0 0 0 0
          0 0 0 0
        </DataArray>
        <DataArray type="Float64" Name="tempe_density" format="ascii" RangeMin="0" RangeMax="0">
          0 0 0 0 0 0
          0 0 0 0 0 0
          0 0 0 0 0 0
          0 0 0 0 0 0
          0 0 0 0 0 0
          0 0 0 0 0 0
          0 0 0 0
        </DataArray>
        <DataArray type="Float64" Name="temperature" format="ascii" RangeMin="0" RangeMax="0">
          0 0 0 0 0 0
          0 0 0 0 0 0
          0 0 0 0 0 0
          0 0 0 0 0 0
          0 0 0 0 0 0
          0 0 0 0 0 0
          0 0 0 0
        </DataArray>
        <DataArray type="Float64" Name="dummy" format="ascii" RangeMin="0" RangeMax="0">
          0 0 0 0 0 0
          0 0 0 0 0 0
          0 0 0 0 0 0
          0 0 0 0 0 0
          0 0 0 0 0 0
          0 0 0 0 0 0
          0 0 0 0
        </DataArray>
      </PointData>
      <CellData>
        <DataArray type="Int32" Name="libmesh_elem_id" format="ascii" RangeMin="27" RangeMax="57">
          27 28 30 33 39 40
          42 45 51 52 54 57
        </DataArray>
        <DataArray type="Int32" Name="subdomain_id" format="ascii" RangeMin="0" RangeMax="0">
          0 0 0 0 0 0
          0 0 0 0 0 0
        </DataArray>
        <DataArray type="Int32" Name="processor_id" format="ascii" RangeMin="3" RangeMax="3">
          3 3 3 3 3 3
          3 3 3 3 3 3
        </DataArray>
      </CellData>
      <Points>
        <DataArray type="Float64" Name="Points" NumberOfComponents="3" format="ascii" RangeMin="2.23606797749979" RangeMax="6.48074069840786">
          1 2 3 0 2 3
          1 3 3 0 3 3
          1 4 3 0 4 3
          1 2 4 0 2 4
          1 3 4 0 3 4
          1 4 4 0 4 4
          1 2 5 0 2 5
          1 3 5 0 3 5
          1 4 5 0 4 5
          0 1 2 1 1 2
          1 2 2 0 2 2
          0 1 3 1 1 3
          2 1 2 2 2 2
          2 1 3 2 2 3
          1 3 2 0 3 2
          1 4 2 0 4 2
          0 1 4 1 1 4
          2 1 4 2 2 4
          0 1 5 1 1 5
          2 1 5 2 2 5
          <InformationKey name="L2_NORM_RANGE" location="vtkDataArray" length="2">
            <Value index="0">
              2.2360679775
            </Value>
            <Value index="1">
              6.4807406984
            </Value>
          </InformationKey>
        </DataArray>
      </Points>
      <Cells>
        <DataArray type="Int64" Name="connectivity" format="ascii" RangeMin="0" RangeMax="39">
          18 19 20 21 22 23
          0 1 19 24 25 20
          23 26 27 0 21 20
          28 29 1 0 2 3
          29 28 30 31 3 2
          4 5 22 23 0 1
          32 33 6 7 23 26
          27 0 33 34 35 6
          1 0 2 3 7 6
          8 9 3 2 4 5
          9 8 10 11 32 33
          6 7 36 37 12 13
          33 34 35 6 37 38
          39 12 7 6 8 9
          13 12 14 15 9 8
          10 11 15 14 16 17
        </DataArray>
        <DataArray type="Int64" Name="offsets" format="ascii" RangeMin="8" RangeMax="96">
          8 16 24 32 40 48
          56 64 72 80 88 96
        </DataArray>
        <DataArray type="UInt8" Name="types" format="ascii" RangeMin="12" RangeMax="12">
          12 12 12 12 12 12
          12 12 12 12 12 12
        </DataArray>
      </Cells>
    </Piece>
  </UnstructuredGrid>
</VTKFile>
