<?xml version="1.0"?>
<VTKFile type="UnstructuredGrid" version="0.1" byte_order="LittleEndian" header_type="UInt32" compressor="vtkZLibDataCompressor">
  <UnstructuredGrid>
    <Piece NumberOfPoints="125" NumberOfCells="64">
      <PointData>
        <DataArray type="Int32" Name="libmesh_node_id" format="ascii" RangeMin="0" RangeMax="124">
          0 1 2 3 4 5
          6 7 8 9 10 11
          12 13 14 15 16 17
          18 19 20 21 22 23
          24 25 26 27 28 29
          30 31 32 33 34 35
          36 37 38 39 40 41
          42 43 44 45 46 47
          48 49 50 51 52 53
          54 55 56 57 58 59
          60 61 62 63 64 65
          66 67 68 69 70 71
          72 73 74 75 76 77
          78 79 80 81 82 83
          84 85 86 87 88 89
          90 91 92 93 94 95
          96 97 98 99 100 101
          102 103 104 105 106 107
          108 109 110 111 112 113
          114 115 116 117 118 119
          120 121 122 123 124
        </DataArray>
        <DataArray type="Float64" Name="power_density" format="ascii" RangeMin="190.80010046222264" RangeMax="198.6256984837074">
          197.96217032874836 196.21801514736742 194.41686401843117 195.7541443387732 195.43195913674845 194.2511766908093
          194.00382086574336 194.90495565757107 193.01497472234402 192.47317904327684 192.56629375095812 192.72611294276763
          191.1780949704621 192.4105881851616 192.70921086405838 193.4994066088269 190.80010046222264 192.95440198185872
          193.35622847107066 194.64927340603418 192.6546442195235 193.07451654923 194.38039110813676 194.25447306425843
          192.60467142242075 194.5155981838743 193.1299686915924 194.82041456933962 193.2853664281603 195.1159419229457
          194.08390142083184 191.77664081793657 194.7246490544847 192.613506334042 194.39726547934757 195.45408157593693
          192.3336059294955 194.60100518363845 192.26384292402292 195.12963899033045 195.47422729211164 190.95036688621116
          194.4449809333733 191.09601871796085 195.51657147806333 194.7628989187025 192.0503558756673 193.8507835821932
          193.06565649322005 195.9697124757672 194.74225579645258 194.70454986521318 193.87235026709948 194.11904975224644
          193.7487814877764 193.23777129129394 193.4650331099503 194.20136759943415 194.09934717832158 195.55284339823288
          194.1410608558219 194.29807877499513 194.72475097986944 196.1664300664122 196.8674011097342 194.90789030892958
          194.9978123199436 195.51275076490214 196.26247099468338 196.31740875747815 194.57380957520115 194.89531079793713
          194.30276066487687 195.12978394546033 195.90635491363213 195.24209025602005 196.01687218354766 194.28491188048204
          194.21642525806607 196.2373124628542 194.47433215268558 194.62726547478417 194.39742078156758 193.57156013493528
          194.19957576066193 192.81986680473267 193.3655103981148 193.49327311517933 194.61095139806605 194.50957977712386
          195.13278678089313 196.03798703869313 195.16561818171 194.8430478705037 193.5824459006807 197.17879152973742
          198.53571354126876 196.0560419755782 194.6317690332263 192.97332363350228 193.90141686388347 194.90898287092014
          194.41590093982063 194.25051798800823 197.09467472972773 195.45216856504177 196.5647914873224 194.98033139675914
          194.8567823931461 193.63760955506768 193.4637498945715 193.56929282552616 193.96356921594762 193.39990311039446
          192.23087475251046 195.81518963206466 195.53072128764657 195.81663250614187 194.0295581894221 192.52550934304313
          198.6256984837074 198.5224760363738 197.51578898074433 194.65518146425114 193.0077058980546
        </DataArray>
        <DataArray type="Float64" Name="tempe_density" format="ascii" RangeMin="590.0028807602328" RangeMax="598.9119419985841">
          591.5623649922811 594.3318107239752 593.831263053107 594.1020035976946 594.5397176700781 594.155176270656
          595.0460804076931 595.7467184289742 598.0362988537428 595.6882258244403 594.3626740164667 594.4814437876157
          596.8231777238776 597.1607471844906 595.4343762753219 594.8628153981675 594.675014195939 596.5055652286198
          595.9140393889444 595.1081856075159 592.6962353683114 593.3211229678797 594.4392621228812 594.4167694823238
          594.5439546820129 595.2010476807175 596.3064474824012 595.3827899292841 595.5963333695197 594.8252392605722
          592.4298898700451 590.0028807602328 593.2482694254865 591.0645471884505 596.2108866617206 596.6616532924661
          595.291198744307 596.1457470741194 593.0175231450305 594.4001792258289 592.7980243857064 590.0051577878143
          593.5549991499405 590.2492746001235 596.6740167545533 597.5214247822621 595.4678191689152 595.8171688106836
          593.1784958123226 593.4522117566007 593.9437411051765 593.429642499371 595.1749632664895 595.268296970913
          592.0974754703237 593.7537735767762 593.5345999302702 592.9462842044754 595.7897928134585 593.4666508174645
          595.9526003291066 595.4336811362405 596.2539495395454 594.7315478013306 593.4267160455429 595.1406343373104
          594.5431106590227 597.0753027066464 596.9933175964981 595.5741877953017 595.2963520500153 594.811711882214
          597.0527780174302 596.8815080690158 595.438452320988 592.3556107852838 594.0631115413914 594.3582058526234
          593.5155557802439 595.6707066128812 594.944676914172 594.8698066810491 594.4600293148313 594.168812433835
          594.2315607263215 594.2355960288767 593.9107793485418 595.0432344537 594.9571625234732 594.3882688487579
          594.788720028956 594.0756053993723 596.5960771518371 595.9708319909741 594.2513443368141 595.7595481640141
          595.0051528768652 597.324332611737 596.0775908836157 594.0204599949205 594.3408097080899 595.2454799013778
          594.6273829345473 593.8859508789153 597.8355114643056 595.6564684255827 596.715988328324 595.5923738325561
          593.9111038227027 595.2406258041259 592.7482802769914 592.4666124213705 593.436710507731 594.9103618204523
          595.9772507580547 593.362820364219 591.1912030973676 596.1539688135931 594.9553241928841 593.1371483896521
          595.238366142172 590.880273401735 598.9119419985841 594.5586840816516 590.889943048744
        </DataArray>
        <DataArray type="Float64" Name="temperature" format="ascii" RangeMin="200" RangeMax="200">
          200 200 200 200 200 200
          200 200 200 200 200 200
          200 200 200 200 200 200
          200 200 200 200 200 200
          200 200 200 200 200 200
          200 200 200 200 200 200
          200 200 200 200 200 200
          200 200 200 200 200 200
          200 200 200 200 200 200
          200 200 200 200 200 200
          200 200 200 200 200 200
          200 200 200 200 200 200
          200 200 200 200 200 200
          200 200 200 200 200 200
          200 200 200 200 200 200
          200 200 200 200 200 200
          200 200 200 200 200 200
          200 200 200 200 200 200
          200 200 200 200 200 200
          200 200 200 200 200 200
          200 200 200 200 200
        </DataArray>
        <DataArray type="Float64" Name="dummy" format="ascii" RangeMin="0" RangeMax="0">
          0 0 0 0 0 0
          0 0 0 0 0 0
          0 0 0 0 0 0
          0 0 0 0 0 0
          0 0 0 0 0 0
          0 0 0 0 0 0
          0 0 0 0 0 0
          0 0 0 0 0 0
          0 0 0 0 0 0
          0 0 0 0 0 0
          0 0 0 0 0 0
          0 0 0 0 0 0
          0 0 0 0 0 0
          0 0 0 0 0 0
          0 0 0 0 0 0
          0 0 0 0 0 0
          0 0 0 0 0 0
          0 0 0 0 0 0
          0 0 0 0 0 0
          0 0 0 0 0 0
          0 0 0 0 0
        </DataArray>
      </PointData>
      <CellData>
        <DataArray type="Int32" Name="libmesh_elem_id" format="ascii" RangeMin="0" RangeMax="63">
          0 1 2 3 4 5
          6 7 8 9 10 11
          12 13 14 15 16 17
          18 19 20 21 22 23
          24 25 26 27 28 29
          30 31 32 33 34 35
          36 37 38 39 40 41
          42 43 44 45 46 47
          48 49 50 51 52 53
          54 55 56 57 58 59
          60 61 62 63
        </DataArray>
        <DataArray type="Int32" Name="subdomain_id" format="ascii" RangeMin="0" RangeMax="0">
          0 0 0 0 0 0
          0 0 0 0 0 0
          0 0 0 0 0 0
          0 0 0 0 0 0
          0 0 0 0 0 0
          0 0 0 0 0 0
          0 0 0 0 0 0
          0 0 0 0 0 0
          0 0 0 0 0 0
          0 0 0 0 0 0
          0 0 0 0
        </DataArray>
        <DataArray type="Int32" Name="processor_id" format="ascii" RangeMin="0" RangeMax="0">
          0 0 0 0 0 0
          0 0 0 0 0 0
          0 0 0 0 0 0
          0 0 0 0 0 0
          0 0 0 0 0 0
          0 0 0 0 0 0
          0 0 0 0 0 0
          0 0 0 0 0 0
          0 0 0 0 0 0
          0 0 0 0 0 0
          0 0 0 0
        </DataArray>
      </CellData>
      <Points>
        <DataArray type="Float64" Name="Points" NumberOfComponents="3" format="ascii" RangeMin="0" RangeMax="1.7320508075688772">
          0 0 0 0.25 0 0
          0.25 0.25 0 0 0.25 0
          0 0 0.25 0.25 0 0.25
          0.25 0.25 0.25 0 0.25 0.25
          0.5 0 0 0.5 0.25 0
          0.5 0 0.25 0.5 0.25 0.25
          0.75 0 0 0.75 0.25 0
          0.75 0 0.25 0.75 0.25 0.25
          1 0 0 1 0.25 0
          1 0 0.25 1 0.25 0.25
          0.25 0.5 0 0 0.5 0
          0.25 0.5 0.25 0 0.5 0.25
          0.5 0.5 0 0.5 0.5 0.25
          0.75 0.5 0 0.75 0.5 0.25
          1 0.5 0 1 0.5 0.25
          0.25 0.75 0 0 0.75 0
          0.25 0.75 0.25 0 0.75 0.25
          0.5 0.75 0 0.5 0.75 0.25
          0.75 0.75 0 0.75 0.75 0.25
          1 0.75 0 1 0.75 0.25
          0.25 1 0 0 1 0
          0.25 1 0.25 0 1 0.25
          0.5 1 0 0.5 1 0.25
          0.75 1 0 0.75 1 0.25
          1 1 0 1 1 0.25
          0 0 0.5 0.25 0 0.5
          0.25 0.25 0.5 0 0.25 0.5
          0.5 0 0.5 0.5 0.25 0.5
          0.75 0 0.5 0.75 0.25 0.5
          1 0 0.5 1 0.25 0.5
          0.25 0.5 0.5 0 0.5 0.5
          0.5 0.5 0.5 0.75 0.5 0.5
          1 0.5 0.5 0.25 0.75 0.5
          0 0.75 0.5 0.5 0.75 0.5
          0.75 0.75 0.5 1 0.75 0.5
          0.25 1 0.5 0 1 0.5
          0.5 1 0.5 0.75 1 0.5
          1 1 0.5 0 0 0.75
          0.25 0 0.75 0.25 0.25 0.75
          0 0.25 0.75 0.5 0 0.75
          0.5 0.25 0.75 0.75 0 0.75
          0.75 0.25 0.75 1 0 0.75
          1 0.25 0.75 0.25 0.5 0.75
          0 0.5 0.75 0.5 0.5 0.75
          0.75 0.5 0.75 1 0.5 0.75
          0.25 0.75 0.75 0 0.75 0.75
          0.5 0.75 0.75 0.75 0.75 0.75
          1 0.75 0.75 0.25 1 0.75
          0 1 0.75 0.5 1 0.75
          0.75 1 0.75 1 1 0.75
          0 0 1 0.25 0 1
          0.25 0.25 1 0 0.25 1
          0.5 0 1 0.5 0.25 1
          0.75 0 1 0.75 0.25 1
          1 0 1 1 0.25 1
          0.25 0.5 1 0 0.5 1
          0.5 0.5 1 0.75 0.5 1
          1 0.5 1 0.25 0.75 1
          0 0.75 1 0.5 0.75 1
          0.75 0.75 1 1 0.75 1
          0.25 1 1 0 1 1
          0.5 1 1 0.75 1 1
          1 1 1
          <InformationKey name="L2_NORM_RANGE" location="vtkDataArray" length="2">
            <Value index="0">
              0
            </Value>
            <Value index="1">
              1.7320508076
            </Value>
          </InformationKey>
        </DataArray>
      </Points>
      <Cells>
        <DataArray type="Int64" Name="connectivity" format="ascii" RangeMin="0" RangeMax="124">
          0 1 2 3 4 5
          6 7 1 8 9 2
          5 10 11 6 8 12
          13 9 10 14 15 11
          12 16 17 13 14 18
          19 15 3 2 20 21
          7 6 22 23 2 9
          24 20 6 11 25 22
          9 13 26 24 11 15
          27 25 13 17 28 26
          15 19 29 27 21 20
          30 31 23 22 32 33
          20 24 34 30 22 25
          35 32 24 26 36 34
          25 27 37 35 26 28
          38 36 27 29 39 37
          31 30 40 41 33 32
          42 43 30 34 44 40
          32 35 45 42 34 36
          46 44 35 37 47 45
          36 38 48 46 37 39
          49 47 4 5 6 7
          50 51 52 53 5 10
          11 6 51 54 55 52
          10 14 15 11 54 56
          57 55 14 18 19 15
          56 58 59 57 7 6
          22 23 53 52 60 61
          6 11 25 22 52 55
          62 60 11 15 27 25
          55 57 63 62 15 19
          29 27 57 59 64 63
          23 22 32 33 61 60
          65 66 22 25 35 32
          60 62 67 65 25 27
          37 35 62 63 68 67
          27 29 39 37 63 64
          69 68 33 32 42 43
          66 65 70 71 32 35
          45 42 65 67 72 70
          35 37 47 45 67 68
          73 72 37 39 49 47
          68 69 74 73 50 51
          52 53 75 76 77 78
          51 54 55 52 76 79
          80 77 54 56 57 55
          79 81 82 80 56 58
          59 57 81 83 84 82
          53 52 60 61 78 77
          85 86 52 55 62 60
          77 80 87 85 55 57
          63 62 80 82 88 87
          57 59 64 63 82 84
          89 88 61 60 65 66
          86 85 90 91 60 62
          67 65 85 87 92 90
          62 63 68 67 87 88
          93 92 63 64 69 68
          88 89 94 93 66 65
          70 71 91 90 95 96
          65 67 72 70 90 92
          97 95 67 68 73 72
          92 93 98 97 68 69
          74 73 93 94 99 98
          75 76 77 78 100 101
          102 103 76 79 80 77
          101 104 105 102 79 81
          82 80 104 106 107 105
          81 83 84 82 106 108
          109 107 78 77 85 86
          103 102 110 111 77 80
          87 85 102 105 112 110
          80 82 88 87 105 107
          113 112 82 84 89 88
          107 109 114 113 86 85
          90 91 111 110 115 116
          85 87 92 90 110 112
          117 115 87 88 93 92
          112 113 118 117 88 89
          94 93 113 114 119 118
          91 90 95 96 116 115
          120 121 90 92 97 95
          115 117 122 120 92 93
          98 97 117 118 123 122
          93 94 99 98 118 119
          124 123
        </DataArray>
        <DataArray type="Int64" Name="offsets" format="ascii" RangeMin="8" RangeMax="512">
          8 16 24 32 40 48
          56 64 72 80 88 96
          104 112 120 128 136 144
          152 160 168 176 184 192
          200 208 216 224 232 240
          248 256 264 272 280 288
          296 304 312 320 328 336
          344 352 360 368 376 384
          392 400 408 416 424 432
          440 448 456 464 472 480
          488 496 504 512
        </DataArray>
        <DataArray type="UInt8" Name="types" format="ascii" RangeMin="12" RangeMax="12">
          12 12 12 12 12 12
          12 12 12 12 12 12
          12 12 12 12 12 12
          12 12 12 12 12 12
          12 12 12 12 12 12
          12 12 12 12 12 12
          12 12 12 12 12 12
          12 12 12 12 12 12
          12 12 12 12 12 12
          12 12 12 12 12 12
          12 12 12 12
        </DataArray>
      </Cells>
    </Piece>
  </UnstructuredGrid>
</VTKFile>
