<?xml version="1.0"?>
<VTKFile type="UnstructuredGrid" version="0.1" byte_order="LittleEndian" header_type="UInt32" compressor="vtkZLibDataCompressor">
  <UnstructuredGrid>
    <Piece NumberOfPoints="36" NumberOfCells="12">
      <PointData>
        <DataArray type="Int32" Name="libmesh_node_id" format="ascii" RangeMin="48" RangeMax="119">
          74 75 78 79 94 95
          98 99 114 115 118 119
          48 50 54 52 68 70
          72 51 55 71 58 56
          76 59 88 90 92 91
          96 108 110 112 111 116
        </DataArray>
        <DataArray type="Float64" Name="power_density" format="ascii" RangeMin="0" RangeMax="0">
          0 0 0 0 0 0
          0 0 0 0 0 0
          0 0 0 0 0 0
          0 0 0 0 0 0
          0 0 0 0 0 0
          0 0 0 0 0 0
        </DataArray>
        <DataArray type="Float64" Name="tempe_density" format="ascii" RangeMin="0" RangeMax="0">
          0 0 0 0 0 0
          0 0 0 0 0 0
          0 0 0 0 0 0
          0 0 0 0 0 0
          0 0 0 0 0 0
          0 0 0 0 0 0
        </DataArray>
        <DataArray type="Float64" Name="temperature" format="ascii" RangeMin="0" RangeMax="0">
          0 0 0 0 0 0
          0 0 0 0 0 0
          0 0 0 0 0 0
          0 0 0 0 0 0
          0 0 0 0 0 0
          0 0 0 0 0 0
        </DataArray>
        <DataArray type="Float64" Name="dummy" format="ascii" RangeMin="0" RangeMax="0">
          0 0 0 0 0 0
          0 0 0 0 0 0
          0 0 0 0 0 0
          0 0 0 0 0 0
          0 0 0 0 0 0
          0 0 0 0 0 0
        </DataArray>
      </PointData>
      <CellData>
        <DataArray type="Int32" Name="libmesh_elem_id" format="ascii" RangeMin="31" RangeMax="59">
          31 32 34 35 43 44
          46 47 55 56 58 59
        </DataArray>
        <DataArray type="Int32" Name="subdomain_id" format="ascii" RangeMin="0" RangeMax="0">
          0 0 0 0 0 0
          0 0 0 0 0 0
        </DataArray>
        <DataArray type="Int32" Name="processor_id" format="ascii" RangeMin="4" RangeMax="4">
          4 4 4 4 4 4
          4 4 4 4 4 4
        </DataArray>
      </CellData>
      <Points>
        <DataArray type="Float64" Name="Points" NumberOfComponents="3" format="ascii" RangeMin="3" RangeMax="7.0710678118654755">
          2 3 3 3 3 3
          2 4 3 3 4 3
          2 3 4 3 3 4
          2 4 4 3 4 4
          2 3 5 3 3 5
          2 4 5 3 4 5
          1 2 2 2 2 2
          2 3 2 1 3 2
          1 2 3 2 2 3
          1 3 3 3 2 2
          3 3 2 3 2 3
          2 4 2 1 4 2
          1 4 3 3 4 2
          1 2 4 2 2 4
          1 3 4 3 2 4
          1 4 4 1 2 5
          2 2 5 1 3 5
          3 2 5 1 4 5
          <InformationKey name="L2_NORM_RANGE" location="vtkDataArray" length="2">
            <Value index="0">
              3
            </Value>
            <Value index="1">
              7.0710678119
            </Value>
          </InformationKey>
        </DataArray>
      </Points>
      <Cells>
        <DataArray type="Int64" Name="connectivity" format="ascii" RangeMin="0" RangeMax="35">
          12 13 14 15 16 17
          0 18 13 19 20 14
          17 21 1 0 15 14
          22 23 18 0 2 24
          14 20 25 22 0 1
          3 2 16 17 0 18
          26 27 4 28 17 21
          1 0 27 29 5 4
          18 0 2 24 28 4
          6 30 0 1 3 2
          4 5 7 6 26 27
          4 28 31 32 8 33
          27 29 5 4 32 34
          9 8 28 4 6 30
          33 8 10 35 4 5
          7 6 8 9 11 10
        </DataArray>
        <DataArray type="Int64" Name="offsets" format="ascii" RangeMin="8" RangeMax="96">
          8 16 24 32 40 48
          56 64 72 80 88 96
        </DataArray>
        <DataArray type="UInt8" Name="types" format="ascii" RangeMin="12" RangeMax="12">
          12 12 12 12 12 12
          12 12 12 12 12 12
        </DataArray>
      </Cells>
    </Piece>
  </UnstructuredGrid>
</VTKFile>
