<?xml version="1.0"?>
<VTKFile type="UnstructuredGrid" version="0.1" byte_order="LittleEndian" header_type="UInt32" compressor="vtkZLibDataCompressor">
  <UnstructuredGrid>
    <Piece NumberOfPoints="40" NumberOfCells="12">
      <PointData>
        <DataArray type="Int32" Name="libmesh_node_id" format="ascii" RangeMin="40" RangeMax="111">
          60 61 62 63 64 65
          66 67 70 71 80 81
          82 83 84 85 86 87
          90 91 100 101 102 103
          104 105 106 107 110 111
          40 41 42 43 44 45
          46 47 51 50
        </DataArray>
        <DataArray type="Float64" Name="power_density" format="ascii" RangeMin="0" RangeMax="0">
          0 0 0 0 0 0
          0 0 0 0 0 0
          0 0 0 0 0 0
          0 0 0 0 0 0
          0 0 0 0 0 0
          0 0 0 0 0 0
          0 0 0 0
        </DataArray>
        <DataArray type="Float64" Name="tempe_density" format="ascii" RangeMin="0" RangeMax="0">
          0 0 0 0 0 0
          0 0 0 0 0 0
          0 0 0 0 0 0
          0 0 0 0 0 0
          0 0 0 0 0 0
          0 0 0 0 0 0
          0 0 0 0
        </DataArray>
        <DataArray type="Float64" Name="temperature" format="ascii" RangeMin="0" RangeMax="0">
          0 0 0 0 0 0
          0 0 0 0 0 0
          0 0 0 0 0 0
          0 0 0 0 0 0
          0 0 0 0 0 0
          0 0 0 0 0 0
          0 0 0 0
        </DataArray>
        <DataArray type="Float64" Name="dummy" format="ascii" RangeMin="0" RangeMax="0">
          0 0 0 0 0 0
          0 0 0 0 0 0
          0 0 0 0 0 0
          0 0 0 0 0 0
          0 0 0 0 0 0
          0 0 0 0 0 0
          0 0 0 0
        </DataArray>
      </PointData>
      <CellData>
        <DataArray type="Int32" Name="libmesh_elem_id" format="ascii" RangeMin="24" RangeMax="53">
          24 25 26 29 36 37
          38 41 48 49 50 53
        </DataArray>
        <DataArray type="Int32" Name="subdomain_id" format="ascii" RangeMin="0" RangeMax="0">
          0 0 0 0 0 0
          0 0 0 0 0 0
        </DataArray>
        <DataArray type="Int32" Name="processor_id" format="ascii" RangeMin="2" RangeMax="2">
          2 2 2 2 2 2
          2 2 2 2 2 2
        </DataArray>
      </CellData>
      <Points>
        <DataArray type="Float64" Name="Points" NumberOfComponents="3" format="ascii" RangeMin="2" RangeMax="6.164414002968976">
          0 0 3 1 0 3
          1 1 3 0 1 3
          2 0 3 2 1 3
          3 0 3 3 1 3
          2 2 3 3 2 3
          0 0 4 1 0 4
          1 1 4 0 1 4
          2 0 4 2 1 4
          3 0 4 3 1 4
          2 2 4 3 2 4
          0 0 5 1 0 5
          1 1 5 0 1 5
          2 0 5 2 1 5
          3 0 5 3 1 5
          2 2 5 3 2 5
          0 0 2 1 0 2
          1 1 2 0 1 2
          2 0 2 2 1 2
          3 0 2 3 1 2
          3 2 2 2 2 2
          <InformationKey name="L2_NORM_RANGE" location="vtkDataArray" length="2">
            <Value index="0">
              2
            </Value>
            <Value index="1">
              6.164414003
            </Value>
          </InformationKey>
        </DataArray>
      </Points>
      <Cells>
        <DataArray type="Int64" Name="connectivity" format="ascii" RangeMin="0" RangeMax="39">
          30 31 32 33 0 1
          2 3 31 34 35 32
          1 4 5 2 34 36
          37 35 4 6 7 5
          35 37 38 39 5 7
          9 8 0 1 2 3
          10 11 12 13 1 4
          5 2 11 14 15 12
          4 6 7 5 14 16
          17 15 5 7 9 8
          15 17 19 18 10 11
          12 13 20 21 22 23
          11 14 15 12 21 24
          25 22 14 16 17 15
          24 26 27 25 15 17
          19 18 25 27 29 28
        </DataArray>
        <DataArray type="Int64" Name="offsets" format="ascii" RangeMin="8" RangeMax="96">
          8 16 24 32 40 48
          56 64 72 80 88 96
        </DataArray>
        <DataArray type="UInt8" Name="types" format="ascii" RangeMin="12" RangeMax="12">
          12 12 12 12 12 12
          12 12 12 12 12 12
        </DataArray>
      </Cells>
    </Piece>
  </UnstructuredGrid>
</VTKFile>
