<?xml version="1.0"?>
<VTKFile type="UnstructuredGrid" version="0.1" byte_order="LittleEndian" header_type="UInt32" compressor="vtkZLibDataCompressor">
  <UnstructuredGrid>
    <Piece NumberOfPoints="125" NumberOfCells="64">
      <PointData>
        <DataArray type="Int32" Name="libmesh_node_id" format="ascii" RangeMin="0" RangeMax="124">
          0 1 2 3 4 5
          6 7 8 9 10 11
          12 13 14 15 16 17
          18 19 20 21 22 23
          24 25 26 27 28 29
          30 31 32 33 34 35
          36 37 38 39 40 41
          42 43 44 45 46 47
          48 49 50 51 52 53
          54 55 56 57 58 59
          60 61 62 63 64 65
          66 67 68 69 70 71
          72 73 74 75 76 77
          78 79 80 81 82 83
          84 85 86 87 88 89
          90 91 92 93 94 95
          96 97 98 99 100 101
          102 103 104 105 106 107
          108 109 110 111 112 113
          114 115 116 117 118 119
          120 121 122 123 124
        </DataArray>
        <DataArray type="Float64" Name="power_density" format="ascii" RangeMin="290.4058091933664" RangeMax="299.8634259582665">
          290.4058091933664 294.8859394040726 295.64027546546697 294.4660324299096 290.4467207864784 293.67009982917506
          295.58908002359425 294.1865969592391 295.08717786070144 295.172889930788 293.89307521706235 294.8501378291175
          294.84155164489096 295.4239339540819 292.95417342738665 294.1615323152989 298.87481718315775 297.3166065476121
          295.0156752925203 295.61435206031217 295.4952759667433 298.59867383987876 295.9856643480391 296.7077402202971
          295.0579012050071 295.14775732717874 296.68805182381567 295.6508329030439 295.65217933122494 296.2697396275113
          294.3186100665873 295.5972894623129 295.09310896394146 295.53067738256146 294.95088954648156 295.00128374866335
          295.1551363315865 295.2377495253638 293.4484242410715 295.12847209872234 294.0412797265494 292.523486911321
          295.72294944981826 295.5723474565285 295.0445786838235 295.5142532841419 292.9404852788145 294.5427244478511
          291.3508857317597 293.93049377052637 290.8556858206642 293.788035679975 295.28598961908966 294.30555962504735
          294.806820747978 294.4517282718682 292.9529124653768 293.87965822042173 293.0125689740833 295.12227951023897
          295.4174074394203 295.4949805574145 293.5228650632868 294.3469522694891 296.9880087338307 295.51391889102786
          295.5865103051497 294.68974689764264 294.71467194592515 295.49117757347113 296.97696646141947 297.93849292490086
          296.43039946447004 295.54184332833876 294.2383277256755 291.3144265756498 294.984625831972 295.3003037818405
          294.6857093982571 296.8750981347026 295.1068865480149 295.06506731150967 294.48995808194996 295.0347634419083
          294.681041233294 294.9734925036388 295.1089301361613 294.50687885347315 294.92593635149785 295.6761698671658
          295.2104830812106 295.3602349773122 295.7153707138906 296.0060495783726 295.6420889140732 296.08996288685256
          298.559601903166 295.7556586821621 296.0750753061398 294.25915711849444 291.4051138895616 294.84744055827156
          295.56651290722334 294.6674610349882 296.8355273468724 295.8377022797405 295.29110490214805 294.11973039957235
          295.2009223375328 293.0296210191224 295.588222857772 294.04470575820903 297.2056410297231 295.7715821462896
          294.2636221904678 295.2607362416611 295.0115146471349 297.10292558334106 297.90311798403616 297.11034263757733
          295.63061202395335 299.8634259582665 294.6344463198444 297.2114275724898 296.55176059493095
        </DataArray>
        <DataArray type="Float64" Name="tempe_density" format="ascii" RangeMin="690.2951856353054" RangeMax="699.8975656497614">
          699.8975656497614 699.0466933662224 696.5602389710447 698.8494827450846 698.1332758137536 697.4381409711915
          695.7756445103007 697.3917769746117 696.0968618656048 693.624757385435 694.4236205070341 693.0836715765367
          695.4314205066057 694.2033136694995 694.0679473629206 693.8816638269825 696.864938364685 695.4281077651333
          696.0316598404022 695.755496546881 694.4040836089982 695.5943846693401 695.1776143489676 696.4973114647444
          692.1525541488624 693.4404769651837 693.3954306022422 694.305010126915 695.6995354554159 695.5869835566534
          695.2222437021569 696.5042039945267 695.6312070871776 696.5946550893038 694.5049008049922 695.1712131048894
          695.8454095314326 695.9843236123786 696.6213008626679 696.2939801000296 695.7101047621843 699.621038490781
          695.02033352583 696.8449653845887 695.8573462175248 695.2051949254507 697.8751646907738 697.0540072619713
          695.8348079800855 696.8933263401124 695.2815107608726 696.2732289523418 694.6798913619989 694.8634865955213
          696.0739171616912 694.8095143567828 694.758413130864 695.5620555679785 694.6339390821568 696.0013785508679
          695.6947061944096 696.5288271874422 694.8306527253976 695.0445316230805 695.2883429967427 695.7773610341778
          695.3844822803935 695.7412236961746 695.1656091096376 695.019010614888 693.2518634511927 692.1567726160728
          695.3662534934288 696.6078529782073 696.8301532558698 693.0223089516799 694.7868765439474 694.1644227705457
          694.2140452392487 697.546396725568 695.5357193627309 695.492699777829 696.0857634679899 692.444050240737
          695.2148885123605 694.8456591713406 696.2464415719718 693.4064380232901 694.102805720273 694.8376121646752
          694.6433273079482 693.9539194861239 695.0163889041959 693.5228516565144 692.3456606344096 693.137305270359
          690.820737355122 696.7449437617053 695.5189190306337 693.0018237234531 691.8505823593605 692.8568837593718
          693.9601128666504 694.6351884915936 695.6953382762172 693.994995779535 694.1730475131654 694.6074297844883
          690.81860363328 694.5099052516141 694.2530510427991 696.8354670292076 691.8799703772901 693.3311378459725
          694.5729699937556 693.7721030197388 693.8239805955417 694.3878558208287 692.8377227870778 690.6199593764343
          694.1014459278083 691.3968217564947 697.3104241699298 694.0549819380216 690.2951856353054
        </DataArray>
        <DataArray type="Float64" Name="temperature" format="ascii" RangeMin="200" RangeMax="200">
          200 200 200 200 200 200
          200 200 200 200 200 200
          200 200 200 200 200 200
          200 200 200 200 200 200
          200 200 200 200 200 200
          200 200 200 200 200 200
          200 200 200 200 200 200
          200 200 200 200 200 200
          200 200 200 200 200 200
          200 200 200 200 200 200
          200 200 200 200 200 200
          200 200 200 200 200 200
          200 200 200 200 200 200
          200 200 200 200 200 200
          200 200 200 200 200 200
          200 200 200 200 200 200
          200 200 200 200 200 200
          200 200 200 200 200 200
          200 200 200 200 200 200
          200 200 200 200 200 200
          200 200 200 200 200
        </DataArray>
        <DataArray type="Float64" Name="dummy" format="ascii" RangeMin="0" RangeMax="0">
          0 0 0 0 0 0
          0 0 0 0 0 0
          0 0 0 0 0 0
          0 0 0 0 0 0
          0 0 0 0 0 0
          0 0 0 0 0 0
          0 0 0 0 0 0
          0 0 0 0 0 0
          0 0 0 0 0 0
          0 0 0 0 0 0
          0 0 0 0 0 0
          0 0 0 0 0 0
          0 0 0 0 0 0
          0 0 0 0 0 0
          0 0 0 0 0 0
          0 0 0 0 0 0
          0 0 0 0 0 0
          0 0 0 0 0 0
          0 0 0 0 0 0
          0 0 0 0 0 0
          0 0 0 0 0
        </DataArray>
      </PointData>
      <CellData>
        <DataArray type="Int32" Name="libmesh_elem_id" format="ascii" RangeMin="0" RangeMax="63">
          0 1 2 3 4 5
          6 7 8 9 10 11
          12 13 14 15 16 17
          18 19 20 21 22 23
          24 25 26 27 28 29
          30 31 32 33 34 35
          36 37 38 39 40 41
          42 43 44 45 46 47
          48 49 50 51 52 53
          54 55 56 57 58 59
          60 61 62 63
        </DataArray>
        <DataArray type="Int32" Name="subdomain_id" format="ascii" RangeMin="0" RangeMax="0">
          0 0 0 0 0 0
          0 0 0 0 0 0
          0 0 0 0 0 0
          0 0 0 0 0 0
          0 0 0 0 0 0
          0 0 0 0 0 0
          0 0 0 0 0 0
          0 0 0 0 0 0
          0 0 0 0 0 0
          0 0 0 0 0 0
          0 0 0 0
        </DataArray>
        <DataArray type="Int32" Name="processor_id" format="ascii" RangeMin="0" RangeMax="0">
          0 0 0 0 0 0
          0 0 0 0 0 0
          0 0 0 0 0 0
          0 0 0 0 0 0
          0 0 0 0 0 0
          0 0 0 0 0 0
          0 0 0 0 0 0
          0 0 0 0 0 0
          0 0 0 0 0 0
          0 0 0 0 0 0
          0 0 0 0
        </DataArray>
      </CellData>
      <Points>
        <DataArray type="Float64" Name="Points" NumberOfComponents="3" format="ascii" RangeMin="0" RangeMax="1.7320508075688772">
          0 0 0 0.25 0 0
          0.25 0.25 0 0 0.25 0
          0 0 0.25 0.25 0 0.25
          0.25 0.25 0.25 0 0.25 0.25
          0.5 0 0 0.5 0.25 0
          0.5 0 0.25 0.5 0.25 0.25
          0.75 0 0 0.75 0.25 0
          0.75 0 0.25 0.75 0.25 0.25
          1 0 0 1 0.25 0
          1 0 0.25 1 0.25 0.25
          0.25 0.5 0 0 0.5 0
          0.25 0.5 0.25 0 0.5 0.25
          0.5 0.5 0 0.5 0.5 0.25
          0.75 0.5 0 0.75 0.5 0.25
          1 0.5 0 1 0.5 0.25
          0.25 0.75 0 0 0.75 0
          0.25 0.75 0.25 0 0.75 0.25
          0.5 0.75 0 0.5 0.75 0.25
          0.75 0.75 0 0.75 0.75 0.25
          1 0.75 0 1 0.75 0.25
          0.25 1 0 0 1 0
          0.25 1 0.25 0 1 0.25
          0.5 1 0 0.5 1 0.25
          0.75 1 0 0.75 1 0.25
          1 1 0 1 1 0.25
          0 0 0.5 0.25 0 0.5
          0.25 0.25 0.5 0 0.25 0.5
          0.5 0 0.5 0.5 0.25 0.5
          0.75 0 0.5 0.75 0.25 0.5
          1 0 0.5 1 0.25 0.5
          0.25 0.5 0.5 0 0.5 0.5
          0.5 0.5 0.5 0.75 0.5 0.5
          1 0.5 0.5 0.25 0.75 0.5
          0 0.75 0.5 0.5 0.75 0.5
          0.75 0.75 0.5 1 0.75 0.5
          0.25 1 0.5 0 1 0.5
          0.5 1 0.5 0.75 1 0.5
          1 1 0.5 0 0 0.75
          0.25 0 0.75 0.25 0.25 0.75
          0 0.25 0.75 0.5 0 0.75
          0.5 0.25 0.75 0.75 0 0.75
          0.75 0.25 0.75 1 0 0.75
          1 0.25 0.75 0.25 0.5 0.75
          0 0.5 0.75 0.5 0.5 0.75
          0.75 0.5 0.75 1 0.5 0.75
          0.25 0.75 0.75 0 0.75 0.75
          0.5 0.75 0.75 0.75 0.75 0.75
          1 0.75 0.75 0.25 1 0.75
          0 1 0.75 0.5 1 0.75
          0.75 1 0.75 1 1 0.75
          0 0 1 0.25 0 1
          0.25 0.25 1 0 0.25 1
          0.5 0 1 0.5 0.25 1
          0.75 0 1 0.75 0.25 1
          1 0 1 1 0.25 1
          0.25 0.5 1 0 0.5 1
          0.5 0.5 1 0.75 0.5 1
          1 0.5 1 0.25 0.75 1
          0 0.75 1 0.5 0.75 1
          0.75 0.75 1 1 0.75 1
          0.25 1 1 0 1 1
          0.5 1 1 0.75 1 1
          1 1 1
          <InformationKey name="L2_NORM_RANGE" location="vtkDataArray" length="2">
            <Value index="0">
              0
            </Value>
            <Value index="1">
              1.7320508076
            </Value>
          </InformationKey>
        </DataArray>
      </Points>
      <Cells>
        <DataArray type="Int64" Name="connectivity" format="ascii" RangeMin="0" RangeMax="124">
          0 1 2 3 4 5
          6 7 1 8 9 2
          5 10 11 6 8 12
          13 9 10 14 15 11
          12 16 17 13 14 18
          19 15 3 2 20 21
          7 6 22 23 2 9
          24 20 6 11 25 22
          9 13 26 24 11 15
          27 25 13 17 28 26
          15 19 29 27 21 20
          30 31 23 22 32 33
          20 24 34 30 22 25
          35 32 24 26 36 34
          25 27 37 35 26 28
          38 36 27 29 39 37
          31 30 40 41 33 32
          42 43 30 34 44 40
          32 35 45 42 34 36
          46 44 35 37 47 45
          36 38 48 46 37 39
          49 47 4 5 6 7
          50 51 52 53 5 10
          11 6 51 54 55 52
          10 14 15 11 54 56
          57 55 14 18 19 15
          56 58 59 57 7 6
          22 23 53 52 60 61
          6 11 25 22 52 55
          62 60 11 15 27 25
          55 57 63 62 15 19
          29 27 57 59 64 63
          23 22 32 33 61 60
          65 66 22 25 35 32
          60 62 67 65 25 27
          37 35 62 63 68 67
          27 29 39 37 63 64
          69 68 33 32 42 43
          66 65 70 71 32 35
          45 42 65 67 72 70
          35 37 47 45 67 68
          73 72 37 39 49 47
          68 69 74 73 50 51
          52 53 75 76 77 78
          51 54 55 52 76 79
          80 77 54 56 57 55
          79 81 82 80 56 58
          59 57 81 83 84 82
          53 52 60 61 78 77
          85 86 52 55 62 60
          77 80 87 85 55 57
          63 62 80 82 88 87
          57 59 64 63 82 84
          89 88 61 60 65 66
          86 85 90 91 60 62
          67 65 85 87 92 90
          62 63 68 67 87 88
          93 92 63 64 69 68
          88 89 94 93 66 65
          70 71 91 90 95 96
          65 67 72 70 90 92
          97 95 67 68 73 72
          92 93 98 97 68 69
          74 73 93 94 99 98
          75 76 77 78 100 101
          102 103 76 79 80 77
          101 104 105 102 79 81
          82 80 104 106 107 105
          81 83 84 82 106 108
          109 107 78 77 85 86
          103 102 110 111 77 80
          87 85 102 105 112 110
          80 82 88 87 105 107
          113 112 82 84 89 88
          107 109 114 113 86 85
          90 91 111 110 115 116
          85 87 92 90 110 112
          117 115 87 88 93 92
          112 113 118 117 88 89
          94 93 113 114 119 118
          91 90 95 96 116 115
          120 121 90 92 97 95
          115 117 122 120 92 93
          98 97 117 118 123 122
          93 94 99 98 118 119
          124 123
        </DataArray>
        <DataArray type="Int64" Name="offsets" format="ascii" RangeMin="8" RangeMax="512">
          8 16 24 32 40 48
          56 64 72 80 88 96
          104 112 120 128 136 144
          152 160 168 176 184 192
          200 208 216 224 232 240
          248 256 264 272 280 288
          296 304 312 320 328 336
          344 352 360 368 376 384
          392 400 408 416 424 432
          440 448 456 464 472 480
          488 496 504 512
        </DataArray>
        <DataArray type="UInt8" Name="types" format="ascii" RangeMin="12" RangeMax="12">
          12 12 12 12 12 12
          12 12 12 12 12 12
          12 12 12 12 12 12
          12 12 12 12 12 12
          12 12 12 12 12 12
          12 12 12 12 12 12
          12 12 12 12 12 12
          12 12 12 12 12 12
          12 12 12 12 12 12
          12 12 12 12 12 12
          12 12 12 12
        </DataArray>
      </Cells>
    </Piece>
  </UnstructuredGrid>
</VTKFile>
