<?xml version="1.0"?>
<VTKFile type="UnstructuredGrid" version="0.1" byte_order="LittleEndian" header_type="UInt32" compressor="vtkZLibDataCompressor">
  <UnstructuredGrid>
    <Piece NumberOfPoints="44" NumberOfCells="15">
      <PointData>
        <DataArray type="Int32" Name="libmesh_node_id" format="ascii" RangeMin="2" RangeMax="59">
          16 17 20 22 24 25
          26 27 28 29 30 31
          32 33 34 35 36 37
          38 39 52 53 54 55
          56 57 58 59 3 2
          7 6 18 19 9 11
          21 13 15 23 49 48
          50 51
        </DataArray>
        <DataArray type="Float64" Name="power_density" format="ascii" RangeMin="382.5" RangeMax="2205">
          1130 1125 1140 1145 1160 1155
          1190 1185 1170 1200 1175 1205
          1175 1170 1205 1200 1185 1215
          1190 1220 2175 2170 2185 2190
          2190 2185 2200 2205 610 615
          382.5 387.5 910 905 625 397.5
          920 630 402.5 925 1177.5 1182.5
          1192.5 1197.5
        </DataArray>
        <DataArray type="Float64" Name="tempe_density" format="ascii" RangeMin="782.5" RangeMax="2605">
          1530 1525 1540 1545 1560 1555
          1590 1585 1570 1600 1575 1605
          1575 1570 1605 1600 1585 1615
          1590 1620 2575 2570 2585 2590
          2590 2585 2600 2605 1010 1015
          782.5 787.5 1310 1305 1025 797.5
          1320 1030 802.5 1325 1577.5 1582.5
          1592.5 1597.5
        </DataArray>
        <DataArray type="Float64" Name="temperature" format="ascii" RangeMin="0" RangeMax="0">
          0 0 0 0 0 0
          0 0 0 0 0 0
          0 0 0 0 0 0
          0 0 0 0 0 0
          0 0 0 0 0 0
          0 0 0 0 0 0
          0 0 0 0 0 0
          0 0
        </DataArray>
        <DataArray type="Float64" Name="dummy" format="ascii" RangeMin="0" RangeMax="0">
          0 0 0 0 0 0
          0 0 0 0 0 0
          0 0 0 0 0 0
          0 0 0 0 0 0
          0 0 0 0 0 0
          0 0 0 0 0 0
          0 0 0 0 0 0
          0 0
        </DataArray>
      </PointData>
      <CellData>
        <DataArray type="Int32" Name="libmesh_elem_id" format="ascii" RangeMin="3" RangeMax="23">
          3 4 5 6 7 8
          9 10 11 18 19 20
          21 22 23
        </DataArray>
        <DataArray type="Int32" Name="subdomain_id" format="ascii" RangeMin="0" RangeMax="0">
          0 0 0 0 0 0
          0 0 0 0 0 0
          0 0 0
        </DataArray>
        <DataArray type="Int32" Name="processor_id" format="ascii" RangeMin="1" RangeMax="1">
          1 1 1 1 1 1
          1 1 1 1 1 1
          1 1 1
        </DataArray>
      </CellData>
      <Points>
        <DataArray type="Float64" Name="Points" NumberOfComponents="3" format="ascii" RangeMin="1" RangeMax="5.385164807134504">
          1 2 0 0 2 0
          2 2 0 3 2 0
          1 3 0 0 3 0
          1 3 1 0 3 1
          2 3 0 2 3 1
          3 3 0 3 3 1
          1 4 0 0 4 0
          1 4 1 0 4 1
          2 4 0 2 4 1
          3 4 0 3 4 1
          1 3 2 0 3 2
          2 3 2 3 3 2
          1 4 2 0 4 2
          2 4 2 3 4 2
          0 1 0 1 1 0
          0 1 1 1 1 1
          1 2 1 0 2 1
          2 1 0 2 1 1
          2 2 1 3 1 0
          3 1 1 3 2 1
          0 2 2 1 2 2
          2 2 2 3 2 2
          <InformationKey name="L2_NORM_RANGE" location="vtkDataArray" length="2">
            <Value index="0">
              1
            </Value>
            <Value index="1">
              5.3851648071
            </Value>
          </InformationKey>
        </DataArray>
      </Points>
      <Cells>
        <DataArray type="Int64" Name="connectivity" format="ascii" RangeMin="0" RangeMax="43">
          28 29 0 1 30 31
          32 33 29 34 2 0
          31 35 36 32 34 37
          3 2 35 38 39 36
          1 0 4 5 33 32
          6 7 0 2 8 4
          32 36 9 6 2 3
          10 8 36 39 11 9
          5 4 12 13 7 6
          14 15 4 8 16 12
          6 9 17 14 8 10
          18 16 9 11 19 17
          33 32 6 7 40 41
          20 21 32 36 9 6
          41 42 22 20 36 39
          11 9 42 43 23 22
          7 6 14 15 21 20
          24 25 6 9 17 14
          20 22 26 24 9 11
          19 17 22 23 27 26
        </DataArray>
        <DataArray type="Int64" Name="offsets" format="ascii" RangeMin="8" RangeMax="120">
          8 16 24 32 40 48
          56 64 72 80 88 96
          104 112 120
        </DataArray>
        <DataArray type="UInt8" Name="types" format="ascii" RangeMin="12" RangeMax="12">
          12 12 12 12 12 12
          12 12 12 12 12 12
          12 12 12
        </DataArray>
      </Cells>
    </Piece>
  </UnstructuredGrid>
</VTKFile>
