<?xml version="1.0"?>
<VTKFile type="UnstructuredGrid" version="0.1" byte_order="LittleEndian" header_type="UInt32" compressor="vtkZLibDataCompressor">
  <UnstructuredGrid>
    <Piece NumberOfPoints="46" NumberOfCells="16">
      <PointData>
        <DataArray type="Int32" Name="libmesh_node_id" format="ascii" RangeMin="48" RangeMax="119">
          72 73 76 77 78 79
          92 93 96 97 98 99
          112 113 116 117 118 119
          49 48 52 53 69 68
          50 54 70 74 51 55
          71 75 56 57 58 59
          89 88 90 94 95 109
          108 110 114 115
        </DataArray>
        <DataArray type="Float64" Name="power_density" format="ascii" RangeMin="1177.5" RangeMax="3260">
          3157.5 3152.5 3170 3165 3180 3185
          3210 3205 3220 3215 3230 3235
          3235 3230 3245 3240 3255 3260
          1177.5 1182.5 2175 2170 2162.5 2167.5
          1192.5 2185 2050 3040 1197.5 2190
          1927.5 2917.5 2190 2185 2200 2205
          2685 2690 2447.5 2967.5 2720 2715
          2720 2480 2995 2750
        </DataArray>
        <DataArray type="Float64" Name="tempe_density" format="ascii" RangeMin="1577.5" RangeMax="3660">
          3557.5 3552.5 3570 3565 3580 3585
          3610 3605 3620 3615 3630 3635
          3635 3630 3645 3640 3655 3660
          1577.5 1582.5 2575 2570 2562.5 2567.5
          1592.5 2585 2450 3440 1597.5 2590
          2327.5 3317.5 2590 2585 2600 2605
          3085 3090 2847.5 3367.5 3120 3115
          3120 2880 3395 3150
        </DataArray>
        <DataArray type="Float64" Name="temperature" format="ascii" RangeMin="0" RangeMax="0">
          0 0 0 0 0 0
          0 0 0 0 0 0
          0 0 0 0 0 0
          0 0 0 0 0 0
          0 0 0 0 0 0
          0 0 0 0 0 0
          0 0 0 0 0 0
          0 0 0 0
        </DataArray>
        <DataArray type="Float64" Name="dummy" format="ascii" RangeMin="0" RangeMax="0">
          0 0 0 0 0 0
          0 0 0 0 0 0
          0 0 0 0 0 0
          0 0 0 0 0 0
          0 0 0 0 0 0
          0 0 0 0 0 0
          0 0 0 0 0 0
          0 0 0 0
        </DataArray>
      </PointData>
      <CellData>
        <DataArray type="Int32" Name="libmesh_elem_id" format="ascii" RangeMin="30" RangeMax="59">
          30 31 32 33 34 35
          42 43 45 46 47 54
          55 57 58 59
        </DataArray>
        <DataArray type="Int32" Name="subdomain_id" format="ascii" RangeMin="0" RangeMax="0">
          0 0 0 0 0 0
          0 0 0 0 0 0
          0 0 0 0
        </DataArray>
        <DataArray type="Int32" Name="processor_id" format="ascii" RangeMin="3" RangeMax="3">
          3 3 3 3 3 3
          3 3 3 3 3 3
          3 3 3 3
        </DataArray>
      </CellData>
      <Points>
        <DataArray type="Float64" Name="Points" NumberOfComponents="3" format="ascii" RangeMin="2.8284271247461903" RangeMax="7.0710678118654755">
          1 3 3 0 3 3
          1 4 3 0 4 3
          2 4 3 3 4 3
          1 3 4 0 3 4
          1 4 4 0 4 4
          2 4 4 3 4 4
          1 3 5 0 3 5
          1 4 5 0 4 5
          2 4 5 3 4 5
          0 2 2 1 2 2
          1 3 2 0 3 2
          0 2 3 1 2 3
          2 2 2 2 3 2
          2 2 3 2 3 3
          3 2 2 3 3 2
          3 2 3 3 3 3
          1 4 2 0 4 2
          2 4 2 3 4 2
          0 2 4 1 2 4
          2 2 4 2 3 4
          3 3 4 0 2 5
          1 2 5 2 2 5
          2 3 5 3 3 5
          <InformationKey name="L2_NORM_RANGE" location="vtkDataArray" length="2">
            <Value index="0">
              2.8284271247
            </Value>
            <Value index="1">
              7.0710678119
            </Value>
          </InformationKey>
        </DataArray>
      </Points>
      <Cells>
        <DataArray type="Int64" Name="connectivity" format="ascii" RangeMin="0" RangeMax="45">
          18 19 20 21 22 23
          0 1 19 24 25 20
          23 26 27 0 24 28
          29 25 26 30 31 27
          21 20 32 33 1 0
          2 3 20 25 34 32
          0 27 4 2 25 29
          35 34 27 31 5 4
          22 23 0 1 36 37
          6 7 23 26 27 0
          37 38 39 6 1 0
          2 3 7 6 8 9
          0 27 4 2 6 39
          10 8 27 31 5 4
          39 40 11 10 36 37
          6 7 41 42 12 13
          37 38 39 6 42 43
          44 12 7 6 8 9
          13 12 14 15 6 39
          10 8 12 44 16 14
          39 40 11 10 44 45
          17 16
        </DataArray>
        <DataArray type="Int64" Name="offsets" format="ascii" RangeMin="8" RangeMax="128">
          8 16 24 32 40 48
          56 64 72 80 88 96
          104 112 120 128
        </DataArray>
        <DataArray type="UInt8" Name="types" format="ascii" RangeMin="12" RangeMax="12">
          12 12 12 12 12 12
          12 12 12 12 12 12
          12 12 12 12
        </DataArray>
      </Cells>
    </Piece>
  </UnstructuredGrid>
</VTKFile>
