<?xml version="1.0"?>
<VTKFile type="UnstructuredGrid" version="0.1" byte_order="LittleEndian" header_type="UInt32" compressor="vtkZLibDataCompressor">
  <UnstructuredGrid>
    <Piece NumberOfPoints="42" NumberOfCells="14">
      <PointData>
        <DataArray type="Int32" Name="libmesh_node_id" format="ascii" RangeMin="60" RangeMax="115">
          74 75 80 81 82 83
          84 85 86 87 88 89
          90 91 94 95 100 101
          102 103 104 105 106 107
          108 109 110 111 114 115
          60 61 62 63 64 65
          66 67 68 69 70 71
        </DataArray>
        <DataArray type="Float64" Name="power_density" format="ascii" RangeMin="1155" RangeMax="3040">
          3040 2917.5 2145 2150 2165 2160
          2160 2175 2165 2180 2690 2685
          2447.5 2200 2967.5 2720 2180 2185
          2200 2195 2195 2210 2200 2215
          2720 2715 2480 2235 2995 2750
          1155 1160 1175 1170 1170 1185
          1175 1190 2167.5 2162.5 2050 1927.5
        </DataArray>
        <DataArray type="Float64" Name="tempe_density" format="ascii" RangeMin="1555" RangeMax="3440">
          3440 3317.5 2545 2550 2565 2560
          2560 2575 2565 2580 3090 3085
          2847.5 2600 3367.5 3120 2580 2585
          2600 2595 2595 2610 2600 2615
          3120 3115 2880 2635 3395 3150
          1555 1560 1575 1570 1570 1585
          1575 1590 2567.5 2562.5 2450 2327.5
        </DataArray>
        <DataArray type="Float64" Name="temperature" format="ascii" RangeMin="0" RangeMax="0">
          0 0 0 0 0 0
          0 0 0 0 0 0
          0 0 0 0 0 0
          0 0 0 0 0 0
          0 0 0 0 0 0
          0 0 0 0 0 0
          0 0 0 0 0 0
        </DataArray>
        <DataArray type="Float64" Name="dummy" format="ascii" RangeMin="0" RangeMax="0">
          0 0 0 0 0 0
          0 0 0 0 0 0
          0 0 0 0 0 0
          0 0 0 0 0 0
          0 0 0 0 0 0
          0 0 0 0 0 0
          0 0 0 0 0 0
        </DataArray>
      </PointData>
      <CellData>
        <DataArray type="Int32" Name="libmesh_elem_id" format="ascii" RangeMin="36" RangeMax="56">
          36 37 38 39 40 41
          44 48 49 50 51 52
          53 56
        </DataArray>
        <DataArray type="Int32" Name="subdomain_id" format="ascii" RangeMin="0" RangeMax="0">
          0 0 0 0 0 0
          0 0 0 0 0 0
          0 0
        </DataArray>
        <DataArray type="Int32" Name="processor_id" format="ascii" RangeMin="2" RangeMax="2">
          2 2 2 2 2 2
          2 2 2 2 2 2
          2 2
        </DataArray>
      </CellData>
      <Points>
        <DataArray type="Float64" Name="Points" NumberOfComponents="3" format="ascii" RangeMin="3" RangeMax="6.557438524302">
          2 3 3 3 3 3
          0 0 4 1 0 4
          1 1 4 0 1 4
          2 0 4 2 1 4
          3 0 4 3 1 4
          1 2 4 0 2 4
          2 2 4 3 2 4
          2 3 4 3 3 4
          0 0 5 1 0 5
          1 1 5 0 1 5
          2 0 5 2 1 5
          3 0 5 3 1 5
          1 2 5 0 2 5
          2 2 5 3 2 5
          2 3 5 3 3 5
          0 0 3 1 0 3
          1 1 3 0 1 3
          2 0 3 2 1 3
          3 0 3 3 1 3
          1 2 3 0 2 3
          2 2 3 3 2 3
          <InformationKey name="L2_NORM_RANGE" location="vtkDataArray" length="2">
            <Value index="0">
              3
            </Value>
            <Value index="1">
              6.5574385243
            </Value>
          </InformationKey>
        </DataArray>
      </Points>
      <Cells>
        <DataArray type="Int64" Name="connectivity" format="ascii" RangeMin="0" RangeMax="41">
          30 31 32 33 2 3
          4 5 31 34 35 32
          3 6 7 4 34 36
          37 35 6 8 9 7
          33 32 38 39 5 4
          10 11 32 35 40 38
          4 7 12 10 35 37
          41 40 7 9 13 12
          40 41 1 0 12 13
          15 14 2 3 4 5
          16 17 18 19 3 6
          7 4 17 20 21 18
          6 8 9 7 20 22
          23 21 5 4 10 11
          19 18 24 25 4 7
          12 10 18 21 26 24
          7 9 13 12 21 23
          27 26 12 13 15 14
          26 27 29 28
        </DataArray>
        <DataArray type="Int64" Name="offsets" format="ascii" RangeMin="8" RangeMax="112">
          8 16 24 32 40 48
          56 64 72 80 88 96
          104 112
        </DataArray>
        <DataArray type="UInt8" Name="types" format="ascii" RangeMin="12" RangeMax="12">
          12 12 12 12 12 12
          12 12 12 12 12 12
          12 12
        </DataArray>
      </Cells>
    </Piece>
  </UnstructuredGrid>
</VTKFile>
