<?xml version="1.0"?>
<VTKFile type="UnstructuredGrid" version="0.1" byte_order="LittleEndian" header_type="UInt32" compressor="vtkZLibDataCompressor">
  <UnstructuredGrid>
    <Piece NumberOfPoints="125" NumberOfCells="64">
      <PointData>
        <DataArray type="Int32" Name="libmesh_node_id" format="ascii" RangeMin="0" RangeMax="124">
          0 1 2 3 4 5
          6 7 8 9 10 11
          12 13 14 15 16 17
          18 19 20 21 22 23
          24 25 26 27 28 29
          30 31 32 33 34 35
          36 37 38 39 40 41
          42 43 44 45 46 47
          48 49 50 51 52 53
          54 55 56 57 58 59
          60 61 62 63 64 65
          66 67 68 69 70 71
          72 73 74 75 76 77
          78 79 80 81 82 83
          84 85 86 87 88 89
          90 91 92 93 94 95
          96 97 98 99 100 101
          102 103 104 105 106 107
          108 109 110 111 112 113
          114 115 116 117 118 119
          120 121 122 123 124
        </DataArray>
        <DataArray type="Float64" Name="power_density" format="ascii" RangeMin="210.7585717166411" RangeMax="219.91440371665675">
          219.17236998968954 216.9542143419043 213.66683729033872 214.72802080010052 217.9781937458731 216.5576785002521
          214.98462818456727 216.39840948781645 214.8996396151402 213.93941874065882 215.10847014491873 214.81920436698925
          216.4187112358157 216.6214420954193 216.20324040205168 216.14496230745297 217.77420193547005 217.9697004900977
          217.32670376889703 216.2223627622455 213.037388365539 214.70243693325523 214.59838136807247 216.580722658227
          212.27941946262513 214.10185931026194 215.38361607904903 215.4427969186546 217.5807330306706 215.29791529470333
          214.46715281719258 215.44717825432662 214.87119287250013 215.7957453254962 214.03626933890916 214.23293328095687
          215.7653268620752 215.22331738335023 216.94524242639073 215.92740862429082 213.23898914208027 211.7731542526543
          213.9572008777377 213.2486705642982 216.4928976187456 214.79208653044967 217.5875945210753 215.64772514224563
          216.8942178361656 216.37700841476902 217.2525074123053 216.16649569530335 215.077442885398 216.63998111167933
          214.6609981822688 214.005080192566 215.27623231116087 214.2483247115112 216.31095223608557 214.0013936970072
          214.94966811705794 216.1125241764977 214.01795574309435 213.8278598231138 213.40662021765718 215.5374431205224
          215.53750988746674 214.685138489828 214.30278016727334 214.77265970846872 215.16394008242162 214.87742623299147
          214.68352769633046 214.1702578001806 214.42391413955198 217.58444644533478 215.58029584053537 213.2514550200083
          214.48871375917062 214.3054104767827 213.55394001630742 216.081019174117 215.2232059095254 217.12736263040463
          215.35272806728204 213.03429492839854 212.26230584321883 213.89640338487703 214.4303079951756 214.87409323417552
          215.72397591173845 215.30208263339 215.1788021194149 214.20230967705763 214.19288430537227 216.30197616616104
          217.47253465334876 215.36726702490793 213.90939600869774 212.215675646553 217.4478955681156 214.98874294906395
          212.65044334801638 213.76626347051493 214.60612526372503 214.7967096408026 217.59734329419996 217.61824491551513
          218.51202639096215 217.17769377494298 212.32862799328726 210.7585717166411 215.6811944414642 216.70687410238384
          215.95004359177273 215.64829851023987 215.67345788851233 215.41692448217844 214.4803669241938 213.75002401599806
          216.951484780874 219.91440371665675 214.45875409930863 213.1861321804502 211.44332200737443
        </DataArray>
        <DataArray type="Float64" Name="tempe_density" format="ascii" RangeMin="610.2960222754955" RangeMax="619.6558572464771">
          612.9125391715276 612.7537108240971 614.3415157016282 615.2757630640526 613.6101565233164 613.4279254774158
          614.7676539542491 614.5598418594301 615.7650304092663 615.635594025832 614.6045849324777 615.6915959163904
          616.197715306517 615.8072037341008 616.1512817733242 615.9142651028715 613.4602522711681 613.7504877557413
          616.3390881132082 615.4208044220306 614.2231945632449 614.5974894261878 614.9641714135777 613.9071116692562
          615.0270076646923 615.6800373016298 614.3766974494218 614.4109278360809 612.548279269761 613.4830122268015
          613.5567442495022 612.2553972346745 614.8180298027756 613.3467166849705 614.7172474042272 615.4118651219385
          614.7074653990909 614.3005344252662 614.8385272540572 614.0666815272361 614.5964199516741 612.9548025735513
          615.8150992094785 614.3887372269728 614.8866371214676 616.2422625409204 616.0782280610226 615.4564616107896
          618.6212192089071 615.6698593317226 616.0228919526417 615.9269938112011 615.8879315990017 616.3429651404552
          615.8232312132034 615.4892878959574 615.6744700157764 616.0176389524178 615.5335732749061 616.489600170469
          615.5535262348315 614.6827554965707 615.0457587143667 614.8113411099296 615.9554617642182 615.4817621531104
          614.1051431660003 614.8286906498038 613.923659354487 615.0483185495872 615.7053412233602 615.5078136671277
          614.7212084495853 614.585444378174 615.6313406367697 614.017016152837 616.4492692628371 615.8725740834334
          614.8543892279007 617.8818963073293 616.4039013349982 615.9452271963414 616.6866736249838 615.0081841508618
          617.4563035189374 615.5006858276413 615.3442902642499 615.3225358482197 616.781254050471 618.5745177955358
          615.0491545169893 615.5658943068231 614.2252271393406 615.7234208571617 617.5288021627977 614.3928162827258
          616.134970388111 612.7312889449094 615.3124536670074 617.8129916215369 610.2960222754955 615.1466910340068
          615.1630771757336 610.8667688296985 617.5614696439409 617.5768246850301 616.6463626012614 617.3593958167742
          618.1671457071593 619.0245277852567 615.59946744953 614.5398034476826 616.8866212062728 618.3849841038227
          619.6558572464771 615.2141000838071 617.3595384169123 614.8995558187237 617.493126456791 618.2558030268362
          614.4087285860143 617.0769853223608 613.6180489510211 616.2887137382234 617.0818014240722
        </DataArray>
        <DataArray type="Float64" Name="temperature" format="ascii" RangeMin="200" RangeMax="200">
          200 200 200 200 200 200
          200 200 200 200 200 200
          200 200 200 200 200 200
          200 200 200 200 200 200
          200 200 200 200 200 200
          200 200 200 200 200 200
          200 200 200 200 200 200
          200 200 200 200 200 200
          200 200 200 200 200 200
          200 200 200 200 200 200
          200 200 200 200 200 200
          200 200 200 200 200 200
          200 200 200 200 200 200
          200 200 200 200 200 200
          200 200 200 200 200 200
          200 200 200 200 200 200
          200 200 200 200 200 200
          200 200 200 200 200 200
          200 200 200 200 200 200
          200 200 200 200 200 200
          200 200 200 200 200
        </DataArray>
        <DataArray type="Float64" Name="dummy" format="ascii" RangeMin="0" RangeMax="0">
          0 0 0 0 0 0
          0 0 0 0 0 0
          0 0 0 0 0 0
          0 0 0 0 0 0
          0 0 0 0 0 0
          0 0 0 0 0 0
          0 0 0 0 0 0
          0 0 0 0 0 0
          0 0 0 0 0 0
          0 0 0 0 0 0
          0 0 0 0 0 0
          0 0 0 0 0 0
          0 0 0 0 0 0
          0 0 0 0 0 0
          0 0 0 0 0 0
          0 0 0 0 0 0
          0 0 0 0 0 0
          0 0 0 0 0 0
          0 0 0 0 0 0
          0 0 0 0 0 0
          0 0 0 0 0
        </DataArray>
      </PointData>
      <CellData>
        <DataArray type="Int32" Name="libmesh_elem_id" format="ascii" RangeMin="0" RangeMax="63">
          0 1 2 3 4 5
          6 7 8 9 10 11
          12 13 14 15 16 17
          18 19 20 21 22 23
          24 25 26 27 28 29
          30 31 32 33 34 35
          36 37 38 39 40 41
          42 43 44 45 46 47
          48 49 50 51 52 53
          54 55 56 57 58 59
          60 61 62 63
        </DataArray>
        <DataArray type="Int32" Name="subdomain_id" format="ascii" RangeMin="0" RangeMax="0">
          0 0 0 0 0 0
          0 0 0 0 0 0
          0 0 0 0 0 0
          0 0 0 0 0 0
          0 0 0 0 0 0
          0 0 0 0 0 0
          0 0 0 0 0 0
          0 0 0 0 0 0
          0 0 0 0 0 0
          0 0 0 0 0 0
          0 0 0 0
        </DataArray>
        <DataArray type="Int32" Name="processor_id" format="ascii" RangeMin="0" RangeMax="0">
          0 0 0 0 0 0
          0 0 0 0 0 0
          0 0 0 0 0 0
          0 0 0 0 0 0
          0 0 0 0 0 0
          0 0 0 0 0 0
          0 0 0 0 0 0
          0 0 0 0 0 0
          0 0 0 0 0 0
          0 0 0 0 0 0
          0 0 0 0
        </DataArray>
      </CellData>
      <Points>
        <DataArray type="Float64" Name="Points" NumberOfComponents="3" format="ascii" RangeMin="0" RangeMax="1.7320508075688772">
          0 0 0 0.25 0 0
          0.25 0.25 0 0 0.25 0
          0 0 0.25 0.25 0 0.25
          0.25 0.25 0.25 0 0.25 0.25
          0.5 0 0 0.5 0.25 0
          0.5 0 0.25 0.5 0.25 0.25
          0.75 0 0 0.75 0.25 0
          0.75 0 0.25 0.75 0.25 0.25
          1 0 0 1 0.25 0
          1 0 0.25 1 0.25 0.25
          0.25 0.5 0 0 0.5 0
          0.25 0.5 0.25 0 0.5 0.25
          0.5 0.5 0 0.5 0.5 0.25
          0.75 0.5 0 0.75 0.5 0.25
          1 0.5 0 1 0.5 0.25
          0.25 0.75 0 0 0.75 0
          0.25 0.75 0.25 0 0.75 0.25
          0.5 0.75 0 0.5 0.75 0.25
          0.75 0.75 0 0.75 0.75 0.25
          1 0.75 0 1 0.75 0.25
          0.25 1 0 0 1 0
          0.25 1 0.25 0 1 0.25
          0.5 1 0 0.5 1 0.25
          0.75 1 0 0.75 1 0.25
          1 1 0 1 1 0.25
          0 0 0.5 0.25 0 0.5
          0.25 0.25 0.5 0 0.25 0.5
          0.5 0 0.5 0.5 0.25 0.5
          0.75 0 0.5 0.75 0.25 0.5
          1 0 0.5 1 0.25 0.5
          0.25 0.5 0.5 0 0.5 0.5
          0.5 0.5 0.5 0.75 0.5 0.5
          1 0.5 0.5 0.25 0.75 0.5
          0 0.75 0.5 0.5 0.75 0.5
          0.75 0.75 0.5 1 0.75 0.5
          0.25 1 0.5 0 1 0.5
          0.5 1 0.5 0.75 1 0.5
          1 1 0.5 0 0 0.75
          0.25 0 0.75 0.25 0.25 0.75
          0 0.25 0.75 0.5 0 0.75
          0.5 0.25 0.75 0.75 0 0.75
          0.75 0.25 0.75 1 0 0.75
          1 0.25 0.75 0.25 0.5 0.75
          0 0.5 0.75 0.5 0.5 0.75
          0.75 0.5 0.75 1 0.5 0.75
          0.25 0.75 0.75 0 0.75 0.75
          0.5 0.75 0.75 0.75 0.75 0.75
          1 0.75 0.75 0.25 1 0.75
          0 1 0.75 0.5 1 0.75
          0.75 1 0.75 1 1 0.75
          0 0 1 0.25 0 1
          0.25 0.25 1 0 0.25 1
          0.5 0 1 0.5 0.25 1
          0.75 0 1 0.75 0.25 1
          1 0 1 1 0.25 1
          0.25 0.5 1 0 0.5 1
          0.5 0.5 1 0.75 0.5 1
          1 0.5 1 0.25 0.75 1
          0 0.75 1 0.5 0.75 1
          0.75 0.75 1 1 0.75 1
          0.25 1 1 0 1 1
          0.5 1 1 0.75 1 1
          1 1 1
          <InformationKey name="L2_NORM_RANGE" location="vtkDataArray" length="2">
            <Value index="0">
              0
            </Value>
            <Value index="1">
              1.7320508076
            </Value>
          </InformationKey>
        </DataArray>
      </Points>
      <Cells>
        <DataArray type="Int64" Name="connectivity" format="ascii" RangeMin="0" RangeMax="124">
          0 1 2 3 4 5
          6 7 1 8 9 2
          5 10 11 6 8 12
          13 9 10 14 15 11
          12 16 17 13 14 18
          19 15 3 2 20 21
          7 6 22 23 2 9
          24 20 6 11 25 22
          9 13 26 24 11 15
          27 25 13 17 28 26
          15 19 29 27 21 20
          30 31 23 22 32 33
          20 24 34 30 22 25
          35 32 24 26 36 34
          25 27 37 35 26 28
          38 36 27 29 39 37
          31 30 40 41 33 32
          42 43 30 34 44 40
          32 35 45 42 34 36
          46 44 35 37 47 45
          36 38 48 46 37 39
          49 47 4 5 6 7
          50 51 52 53 5 10
          11 6 51 54 55 52
          10 14 15 11 54 56
          57 55 14 18 19 15
          56 58 59 57 7 6
          22 23 53 52 60 61
          6 11 25 22 52 55
          62 60 11 15 27 25
          55 57 63 62 15 19
          29 27 57 59 64 63
          23 22 32 33 61 60
          65 66 22 25 35 32
          60 62 67 65 25 27
          37 35 62 63 68 67
          27 29 39 37 63 64
          69 68 33 32 42 43
          66 65 70 71 32 35
          45 42 65 67 72 70
          35 37 47 45 67 68
          73 72 37 39 49 47
          68 69 74 73 50 51
          52 53 75 76 77 78
          51 54 55 52 76 79
          80 77 54 56 57 55
          79 81 82 80 56 58
          59 57 81 83 84 82
          53 52 60 61 78 77
          85 86 52 55 62 60
          77 80 87 85 55 57
          63 62 80 82 88 87
          57 59 64 63 82 84
          89 88 61 60 65 66
          86 85 90 91 60 62
          67 65 85 87 92 90
          62 63 68 67 87 88
          93 92 63 64 69 68
          88 89 94 93 66 65
          70 71 91 90 95 96
          65 67 72 70 90 92
          97 95 67 68 73 72
          92 93 98 97 68 69
          74 73 93 94 99 98
          75 76 77 78 100 101
          102 103 76 79 80 77
          101 104 105 102 79 81
          82 80 104 106 107 105
          81 83 84 82 106 108
          109 107 78 77 85 86
          103 102 110 111 77 80
          87 85 102 105 112 110
          80 82 88 87 105 107
          113 112 82 84 89 88
          107 109 114 113 86 85
          90 91 111 110 115 116
          85 87 92 90 110 112
          117 115 87 88 93 92
          112 113 118 117 88 89
          94 93 113 114 119 118
          91 90 95 96 116 115
          120 121 90 92 97 95
          115 117 122 120 92 93
          98 97 117 118 123 122
          93 94 99 98 118 119
          124 123
        </DataArray>
        <DataArray type="Int64" Name="offsets" format="ascii" RangeMin="8" RangeMax="512">
          8 16 24 32 40 48
          56 64 72 80 88 96
          104 112 120 128 136 144
          152 160 168 176 184 192
          200 208 216 224 232 240
          248 256 264 272 280 288
          296 304 312 320 328 336
          344 352 360 368 376 384
          392 400 408 416 424 432
          440 448 456 464 472 480
          488 496 504 512
        </DataArray>
        <DataArray type="UInt8" Name="types" format="ascii" RangeMin="12" RangeMax="12">
          12 12 12 12 12 12
          12 12 12 12 12 12
          12 12 12 12 12 12
          12 12 12 12 12 12
          12 12 12 12 12 12
          12 12 12 12 12 12
          12 12 12 12 12 12
          12 12 12 12 12 12
          12 12 12 12 12 12
          12 12 12 12 12 12
          12 12 12 12
        </DataArray>
      </Cells>
    </Piece>
  </UnstructuredGrid>
</VTKFile>
