<?xml version="1.0"?>
<VTKFile type="UnstructuredGrid" version="0.1" byte_order="LittleEndian" header_type="UInt32" compressor="vtkZLibDataCompressor">
  <UnstructuredGrid>
    <Piece NumberOfPoints="16" NumberOfCells="3">
      <PointData>
        <DataArray type="Int32" Name="libmesh_node_id" format="ascii" RangeMin="26" RangeMax="59">
          26 28 29 30 31 34
          36 37 38 39 52 54
          58 56 55 59
        </DataArray>
        <DataArray type="Float64" Name="power_density" format="ascii" RangeMin="6617.5" RangeMax="12365">
          12118.75 12365 12121.25 12115 12122.5 10870
          10615 10370 10110 10120 6618.75 6748.75
          6620 6617.5 6877.5 6625
        </DataArray>
        <DataArray type="Float64" Name="tempe_density" format="ascii" RangeMin="7017.5" RangeMax="12765">
          12518.75 12765 12521.25 12515 12522.5 11270
          11015 10770 10510 10520 7018.75 7148.75
          7020 7017.5 7277.5 7025
        </DataArray>
        <DataArray type="Float64" Name="temperature" format="ascii" RangeMin="0" RangeMax="0">
          0 0 0 0 0 0
          0 0 0 0 0 0
          0 0 0 0
        </DataArray>
        <DataArray type="Float64" Name="dummy" format="ascii" RangeMin="0" RangeMax="0">
          0 0 0 0 0 0
          0 0 0 0 0 0
          0 0 0 0
        </DataArray>
      </PointData>
      <CellData>
        <DataArray type="Int32" Name="libmesh_elem_id" format="ascii" RangeMin="11" RangeMax="23">
          11 22 23
        </DataArray>
        <DataArray type="Int32" Name="subdomain_id" format="ascii" RangeMin="0" RangeMax="0">
          0 0 0
        </DataArray>
        <DataArray type="Int32" Name="processor_id" format="ascii" RangeMin="10" RangeMax="10">
          10 10 10
        </DataArray>
      </CellData>
      <Points>
        <DataArray type="Float64" Name="Points" NumberOfComponents="3" format="ascii" RangeMin="3.3166247903554" RangeMax="5.385164807134504">
          1 3 1 2 3 0
          2 3 1 3 3 0
          3 3 1 1 4 1
          2 4 0 2 4 1
          3 4 0 3 4 1
          1 3 2 2 3 2
          2 4 2 1 4 2
          3 3 2 3 4 2
          <InformationKey name="L2_NORM_RANGE" location="vtkDataArray" length="2">
            <Value index="0">
              3.3166247904
            </Value>
            <Value index="1">
              5.3851648071
            </Value>
          </InformationKey>
        </DataArray>
      </Points>
      <Cells>
        <DataArray type="Int64" Name="connectivity" format="ascii" RangeMin="0" RangeMax="15">
          1 3 8 6 2 4
          9 7 0 2 7 5
          10 11 12 13 2 4
          9 7 11 14 15 12
        </DataArray>
        <DataArray type="Int64" Name="offsets" format="ascii" RangeMin="8" RangeMax="24">
          8 16 24
        </DataArray>
        <DataArray type="UInt8" Name="types" format="ascii" RangeMin="12" RangeMax="12">
          12 12 12
        </DataArray>
      </Cells>
    </Piece>
  </UnstructuredGrid>
</VTKFile>
